InChI,Key,smiles,Formula,Weight,logP(o/w),b_rotN,vol,lip_violation,ASA_P,Natural,ChemicalName
"InChI=1S/C16H14N2O2/c19-15-13-8-4-5-9-14(13)16(20)18(17-15)11-10-12-6-2-1-3-7-12/h1-9H,10-11H2,(H,17,19)",JSSVIGGKHIJEHO-UHFFFAOYSA-N,O=C1N(NC(=O)c2c1cccc2)CCc1ccccc1,C8H10N4O2,266.29999,2.6210,3,257.13,0,104.99553,0,"3-(2-phenylethyl)-2<I>H</I>-phthalazine-1,4-dione"
"InChI=1S/C16H18N6O4/c17-13-10-14(21-16(20-13)19-8-4-2-1-3-5-8)22(7-18-10)15-12(25)11(24)9(6-23)26-15/h1-5,7,9,11-12,15,23-25H,6H2,(H3,17,19,20,21)",SCNILGOVBBRMBK-UHFFFAOYSA-N,O1C(CO)C(O)C(O)C1n1c2nc(nc(N)c2nc1)Nc1ccccc1,C8H14ClN5,358.358,-0.5699,4,305.63,1,267.80267,1,"2-(6-amino-2-anilino-purin-9-yl)-5-(hydroxymethyl)tetrahydrofuran-3,4-diol"
"InChI=1S/C23H36N4O5/c1-15(2)9-10-25-14-20(28)18-12-16-5-7-17(8-6-16)32-11-3-4-22(30)26-19(13-21(24)29)23(31)27-18/h5-8,15,18-20,25,28H,3-4,9-14H2,1-2H3,(H2,24,29)(H,26,30)(H,27,31)",SCRDVDSVEKGWGQ-UHFFFAOYSA-N,O1CCCC(=O)NC(CC(=O)N)C(=O)NC(Cc2ccc1cc2)C(O)CNCCC(C)C,C8H8O3,448.564,0.4460,8,408.25,1,231.73157,1,"2-[3-[1-hydroxy-2-(isopentylamino)ethyl]-5,8-dioxo-12-oxa-4,7-diazabicyclo[11.2.2]heptadeca-1(15),13,16-trien-6-yl]acetamide"
"InChI=1S/C20H30O6/c21-17(11-6-2-1-3-9-15-19(23)24)12-7-4-5-8-13-18(22)14-10-16-20(25)26/h2,4-8,12-13,17-18,21-22H,1,3,9-11,14-16H2,(H,23,24)(H,25,26)",SXWGPVJGNOLNHT-UHFFFAOYSA-N,OC(CCCC(O)=O)C=CC=CC=CC(O)CC=CCCCCC(O)=O,C8H9NO2,366.45398,2.8500,15,348.50,0,273.45749,0,"(6<I>E</I>,8<I>E</I>,10<I>E</I>,14<I>E</I>)-5,12-dihydroxyicosa-6,8,10,14-tetraenedioic acid"
"InChI=1S/C20H32O5/c21-17-10-6-2-1-3-7-12-18(22)13-8-4-5-9-14-19(23)15-11-16-20(24)25/h3-5,7-9,13-14,18-19,21-23H,1-2,6,10-12,15-17H2,(H,24,25)",PTJFJXLGRSTECQ-UHFFFAOYSA-N,OC(CCCC(O)=O)C=CC=CC=CC(O)CC=CCCCCCO,C9H10O3,352.47098,3.0050,15,344.75,0,275.13693,1,"(6<I>E</I>,8<I>E</I>,10<I>E</I>,14<I>E</I>)-5,12,20-trihydroxyicosa-6,8,10,14-tetraenoic acid"
"InChI=1S/C27H44O3/c1-18-8-12-22(28)17-21(18)11-10-20-7-6-16-27(5)23(13-14-24(20)27)19(2)9-15-25(29)26(3,4)30/h10-11,19,22-25,28-30H,1,6-9,12-17H2,2-5H3",FCKJYANJHNLEEP-UHFFFAOYSA-N,OC1CC(=CC=C2C3CCC(C(CCC(O)C(O)(C)C)C)C3(CCC2)C)C(CC1)=C,C9H8O2,416.646,5.0430,6,387.75,1,151.92151,0,"6-[(4<I>E</I>)-4-[(2<I>E</I>)-2-(5-hydroxy-2-methylene-cyclohexylidene)ethylidene]-7<I>a</I>-methyl-2,3,3<I>a</I>,5,6,7-hexahydro-1<I>H</I>-inden-1-yl]-2-methyl-heptane-2,3-diol"
"InChI=1S/C28H50O12S3/c1-16(2)17(3)7-8-18(4)20-9-10-21-19-13-24(38-41(29,30)31)23-14-25(39-42(32,33)34)26(40-43(35,36)37)15-28(23,6)22(19)11-12-27(20,21)5/h16-26H,7-15H2,1-6H3,(H,29,30,31)(H,32,33,34)( H,35,36,37)/p-3",WBHAMVHLRVKJRH-UHFFFAOYSA-K,S(OC1CC2(C(CC1OS(=O)(=O)[O-])C(OS(=O)(=O)[O-])CC1C3CCC(C(CCC(C(C)C)C)C)C3(CCC12)C)C)(=O)(=O)[O-],C10H11ClO3,671.87,5.5477,11,481.13,2,323.43738,1,"[10,13-dimethyl-2,3-disulfonatooxy-17-(1,4,5-trimethylhexyl)-2,3,4,5,6,7,8,9,11,12,14,15,16,17-tetradecahydro-1<I>H</I>-cyclopenta[a]phenanthren-6-yl] sulfate"
"InChI=1S/C28H50O12S3/c1-16(2)17(3)7-8-18(4)20-9-10-21-19-13-24(38-41(29,30)31)23-14-25(39-42(32,33)34)26(40-43(35,36)37)15-28(23,6)22(19)11-12-27(20,21)5/h16-26H,7-15H2,1-6H3,(H,29,30,31)(H,32,33,34)( H,35,36,37)",WBHAMVHLRVKJRH-UHFFFAOYSA-N,S(OC1CC2(C(CC1OS(O)(=O)=O)C(OS(O)(=O)=O)CC1C3CCC(C(CCC(C(C)C)C)C)C3(CCC12)C)C)(O)(=O)=O,C10H11N3O3S,674.89398,5.6977,11,481.13,2,336.30621,1,"[10,13-dimethyl-2,3-disulfooxy-17-(1,4,5-trimethylhexyl)-2,3,4,5,6,7,8,9,11,12,14,15,16,17-tetradecahydro-1<I>H</I>-cyclopenta[a]phenanthren-6-yl] hydrogen sulfate"
"InChI=1S/C27H44O2/c1-19-10-13-23(28)18-22(19)12-11-21-9-7-17-27(5)24(14-15-25(21)27)20(2)8-6-16-26(3,4)29/h11-12,20,23-25,28-29H,1,6-10,13-18H2,2-5H3",JWUBBDSIWDLEOM-UHFFFAOYSA-N,OC1CC(=CC=C2C3CCC(C(CCCC(O)(C)C)C)C3(CCC2)C)C(CC1)=C,C10H12O3,400.647,6.0580,6,385.50,1,115.63006,0,"(3<I>E</I>)-3-[(2<I>E</I>)-2-[1-(5-hydroxy-1,5-dimethyl-hexyl)-7<I>a</I>-methyl-2,3,3<I>a</I>,5,6,7-hexahydro-1<I>H</I>-inden-4-ylidene]ethylidene]-4-methylene-cyclohexanol"
"InChI=1S/C30H54O12S3/c1-8-28(4,5)19(3)10-9-18(2)21-11-12-22-20-15-25(40-43(31,32)33)24-16-26(41-44(34,35)36)27(42-45(37,38)39)17-30(24,7)23(20)13-14-29(21,22)6/h18-27H,8-17H2,1-7H3,(H,31,32,33)(H,34,3 5,36)(H,37,38,39)/p-3",XUMJIMYIZJLITA-UHFFFAOYSA-K,S(OC1CC2(C(CC1OS(=O)(=O)[O-])C(OS(=O)(=O)[O-])CC1C3CCC(C(CCC(C(CC)(C)C)C)C)C3(CCC12)C)C)(=O)(=O)[O-],C12H7Cl3O2,699.92401,6.3887,12,504.88,2,339.0791,1,"[10,13-dimethyl-2,3-disulfonatooxy-17-(1,4,5,5-tetramethylheptyl)-2,3,4,5,6,7,8,9,11,12,14,15,16,17-tetradecahydro-1<I>H</I>-cyclopenta[a]phenanthren-6-yl] sulfate"
"InChI=1S/C30H54O12S3/c1-8-28(4,5)19(3)10-9-18(2)21-11-12-22-20-15-25(40-43(31,32)33)24-16-26(41-44(34,35)36)27(42-45(37,38)39)17-30(24,7)23(20)13-14-29(21,22)6/h18-27H,8-17H2,1-7H3,(H,31,32,33)(H,34,3 5,36)(H,37,38,39)",XUMJIMYIZJLITA-UHFFFAOYSA-N,S(OC1CC2(C(CC1OS(O)(=O)=O)C(OS(O)(=O)=O)CC1C3CCC(C(CCC(C(CC)(C)C)C)C)C3(CCC12)C)C)(O)(=O)=O,C13H10N2O3S,702.948,6.5387,12,504.88,2,317.46921,0,"[10,13-dimethyl-2,3-disulfooxy-17-(1,4,5,5-tetramethylheptyl)-2,3,4,5,6,7,8,9,11,12,14,15,16,17-tetradecahydro-1<I>H</I>-cyclopenta[a]phenanthren-6-yl] hydrogen sulfate"
"InChI=1S/C32H48O5/c1-20(2)12-13-24(35)21(3)10-9-11-22(4)29-25(36)18-27-30(6)17-15-28(37-23(5)34)32(8,19-33)26(30)14-16-31(27,29)7/h9-12,24,26-28,33,35H,13-19H2,1-8H3",QDIPGNADJXRSEJ-UHFFFAOYSA-N,O(C(=O)C)C1CCC2(C(CCC3(C2CC(=O)C3=C(C=CC=C(C(O)CC=C(C)C)C)C)C)C1(CO)C)C,C13H18O2,512.73102,4.6110,8,459.25,2,148.88773,1,"[(3<I>Z</I>)-6-(hydroxymethyl)-3-[(2<I>E</I>,4<I>E</I>)-6-hydroxy-1,5,9-trimethyl-deca-2,4,8-trienylidene]-3<I>a</I>,6,9<I>a</I>-trimethyl-2-oxo-1,4,5,5<I>a</I>,7,8,9,9<I>b</I>-octahydrocyclopenta[a]n aphthalen-7-yl] acetate"
"InChI=1S/C34H50O6/c1-21(2)13-14-27(39-24(5)36)22(3)11-10-12-23(4)31-26(38)19-29-32(7)18-16-30(40-25(6)37)34(9,20-35)28(32)15-17-33(29,31)8/h10-13,27-30,35H,14-20H2,1-9H3",ZFNWQRALNVEBDQ-UHFFFAOYSA-N,O(C(=O)C)C1CCC2(C(CCC3(C2CC(=O)C3=C(C=CC=C(C(OC(=O)C)CC=C(C)C)C)C)C)C1(CO)C)C,C13H9Cl3N2O,554.76801,5.2000,10,494.13,2,143.0674,1,"[(3<I>E</I>)-3-[(2<I>Z</I>,4<I>E</I>)-6-acetoxy-1,5,9-trimethyl-deca-2,4,8-trienylidene]-6-(hydroxymethyl)-3<I>a</I>,6,9<I>a</I>-trimethyl-2-oxo-1,4,5,5<I>a</I>,7,8,9,9<I>b</I>-octahydrocyclopenta[a]n aphthalen-7-yl] acetate"
"InChI=1S/C14H16BNO/c16-11-12-17-15(13-7-3-1-4-8-13)14-9-5-2-6-10-14/h1-10H,11-12,16H2",BLZVCIGGICSWIG-UHFFFAOYSA-N,O(CCN)B(c1ccccc1)c1ccccc1,C14H12O3,225.099,2.4030,5,233.63,0,83.795219,0,2-diphenylboranyloxyethanamine
"InChI=1S/C12H18N6O3/c1-17(2)10-8-11(15-4-14-10)18(5-16-8)12-9(20)7(13)6(3-19)21-12/h4-7,9,12,19-20H,3,13H2,1-2H3",RYSMHWILUNYBFW-UHFFFAOYSA-N,O1C(CO)C(N)C(O)C1n1c2ncnc(N(C)C)c2nc1,C15H12N2O,294.315,-1.9539,3,253.25,0,257.91714,1,4-amino-2-[6-(dimethylamino)purin-9-yl]-5-(hydroxymethyl)tetrahydrofuran-3-ol
"InChI=1S/C10H14N5O7P/c1-5-3-15(10(17)12-9(5)16)8-2-6(13-14-11)7(22-8)4-21-23(18,19)20/h3,6-8H,2,4H2,1H3,(H,12,16,17)(H2,18,19,20)",OIFWQOKDSPDILA-UHFFFAOYSA-N,P(OCC1OC(N2C=C(C)C(=O)NC2=O)CC1N=[N+]=[N-])(O)(O)=O,C4H4KNO4S,347.224,-2.9620,5,258.38,1,358.33795,0,"[3-azido-5-(5-methyl-2,4-dioxo-pyrimidin-1-yl)tetrahydrofuran-2-yl]methyl dihydrogen phosphate"
"InChI=1S/C10H16N5O12P3/c11-8-7-9(13-3-12-8)15(4-14-7)10-6(16)1-5(25-10)2-24-29(20,21)27-30(22,23)26-28(17,18)19/h3-6,10,16H,1-2H2,(H,20,21)(H,22,23)(H2,11,12,13)(H2,17,18,19)",NLIHPCYXRYQPSD-UHFFFAOYSA-N,P(OCC1OC(n2c3ncnc(N)c3nc2)C(O)C1)(OP(OP(O)(O)=O)(O)=O)(O)=O,C7H6O3,491.18298,-3.9549,8,308.00,2,480.79517,1,[[5-(6-aminopurin-9-yl)-4-hydroxy-tetrahydrofuran-2-yl]methoxy-hydroxy-phosphoryl] phosphono hydrogen phosphate
"InChI=1S/C18H22N2O12P2/c1-11-9-20(18(23)19-17(11)22)16-8-14(29-12(2)21)15(30-16)10-28-33(24,25)32-34(26,27)31-13-6-4-3-5-7-13/h3-7,9,14-16H,8,10H2,1-2H3,(H,24,25)(H,26,27)(H,19,22,23)",FBXZTUIVKSOQAY-UHFFFAOYSA-N,P(Oc1ccccc1)(OP(OCC1OC(N2C=C(C)C(=O)NC2=O)CC1OC(=O)C)(O)=O)(O)=O,C7H8N4O2,520.32397,-0.8720,10,389.63,2,298.60675,1,"[2-[[hydroxy-[hydroxy(phenoxy)phosphoryl]oxy-phosphoryl]oxymethyl]-5-(5-methyl-2,4-dioxo-pyrimidin-1-yl)tetrahydrofuran-3-yl] acetate"
"InChI=1S/C10H16N5O13P3/c11-8-5-9(13-2-12-8)15(3-14-5)10-6(16)7(27-29(17,18)19)4(26-10)1-25-31(23,24)28-30(20,21)22/h2-4,6-7,10,16H,1H2,(H,23,24)(H2,11,12,13)(H2,17,18,19)(H2,20,21,22)",GBBWIZKLHXYJOA-UHFFFAOYSA-N,P(OCC1OC(n2c3ncnc(N)c3nc2)C(O)C1OP(O)(O)=O)(OP(O)(O)=O)(O)=O,C8H10N4O2,507.18201,-4.9749,8,315.88,3,544.92255,0,[5-(6-aminopurin-9-yl)-4-hydroxy-3-phosphonooxy-tetrahydrofuran-2-yl]methyl phosphono hydrogen phosphate
"InChI=1S/C13H14N2O5S3/c1-20-11-4-2-3-10(8-11)15-6-5-9-7-12(22(14,16)17)21-13(9)23(15,18)19/h2-4,7-8H,5-6H2,1H3,(H2,14,16,17)",ICIXQGGQPKFQRL-UHFFFAOYSA-N,s1c2S(=O)(=O)N(CCc2cc1S(=O)(=O)N)c1cc(OC)ccc1,C8H14ClN5,374.46201,0.7450,3,273.00,0,235.73283,1,"2-(3-methoxyphenyl)-1,1-dioxo-3,4-dihydrothieno[3,2-e]thiazine-6-sulfonamide"
"InChI=1S/C4H13N5O2/c5-1-3-8(4-2-6)9(11)7-10/h11H,1-6H2",HMRRJTFDJAVRMR-UHFFFAOYSA-N,ON(N(CCN)CCN)N=O,C8H9NO2,163.181,-2.7660,6,132.38,0,190.18993,1,<I>N</I>-[bis(2-aminoethyl)amino]-<I>N</I>-hydroxy-nitrous amide
"InChI=1S/C7H7Cl2N/c8-6-2-1-5(4-10)3-7(6)9/h1-3H,4,10H2",IXHNFOOSLAWRBQ-UHFFFAOYSA-N,Clc1cc(ccc1Cl)CN,C9H10O3,176.04599,2.3810,1,142.88,0,73.580574,1,"(3,4-dichlorophenyl)methanamine"
InChI=1S/C9H4Cl2O2/c10-7-5-3-1-2-4-6(5)9(12)13-8(7)11/h1-4H,SUGXUUGGLDCZKB-UHFFFAOYSA-N,ClC=1c2c(cccc2)C(OC=1Cl)=O,C9H8O2,215.03499,3.8500,0,171.63,0,72.392159,0,"3,4-dichloroisochromen-1-one"
"InChI=1S/C9H14N2O5/c12-4-5-6(13)7(14)8(16-5)11-3-1-2-10-9(11)15/h1,3,5-8,12-14H,2,4H2,(H,10,15)",NVRAAJMSMZQKRW-UHFFFAOYSA-N,O1C(CO)C(O)C(O)C1N1C=CCNC1=O,C10H11ClO3,230.22,-2.6990,2,184.00,0,224.53923,1,"3-[3,4-dihydroxy-5-(hydroxymethyl)tetrahydrofuran-2-yl]-1,6-dihydropyrimidin-2-one"
"InChI=1S/C11H12N2O5S4/c12-21(15,16)10-4-8-9(14)6-13(5-7-2-1-3-19-7)22(17,18)11(8)20-10/h1-4,9,14H,5-6H2,(H2,12,15,16)",HHPUQNGRNUOYCD-UHFFFAOYSA-N,s1cccc1CN1S(=O)(=O)c2sc(S(=O)(=O)N)cc2C(O)C1,C10H11N3O3S,380.48999,-0.2450,3,254.25,0,244.41023,0,"4-hydroxy-1,1-dioxo-2-(2-thienylmethyl)-3,4-dihydrothieno[3,2-e]thiazine-6-sulfonamide"
"InChI=1S/C13H14N2O6S3/c1-21-9-4-2-8(3-5-9)15-7-11(16)10-6-12(23(14,17)18)22-13(10)24(15,19)20/h2-6,11,16H,7H2,1H3,(H2,14,17,18)",ZWTSOJQGEWPWGO-UHFFFAOYSA-N,s1c2S(=O)(=O)N(CC(O)c2cc1S(=O)(=O)N)c1ccc(OC)cc1,C10H12O3,390.461,0.0470,3,277.13,0,288.36136,1,"4-hydroxy-2-(4-methoxyphenyl)-1,1-dioxo-3,4-dihydrothieno[3,2-e]thiazine-6-sulfonamide"
"InChI=1S/C19H12F3N3O3S/c20-19(21,22)10-5-6-15-14(7-10)23-16(29-15)9-25-18(28)12-4-2-1-3-11(12)13(24-25)8-17(26)27/h1-7H,8-9H2,(H,26,27)",BCSVCWVQNOXFGL-UHFFFAOYSA-N,s1c2c(nc1CN1N=C(c3c(cccc3)C1=O)CC(O)=O)cc(cc2)C(F)(F)F,C12H7Cl3O2,419.383,4.3668,5,335.25,0,261.93051,1,"2-[4-oxo-3-[[5-(trifluoromethyl)-1,3-benzothiazol-2-yl]methyl]phthalazin-1-yl]acetic acid"
"InChI=1S/C10H13NO2/c1-7(11)4-8-2-3-9-10(5-8)13-6-12-9/h2-3,5,7H,4,6,11H2,1H3",NGBBVGZWCFBOGO-UHFFFAOYSA-N,O1c2cc(ccc2OC1)CC(N)C,C13H10N2O3S,179.21899,1.4170,2,169.88,0,101.29111,0,"1-(1,3-benzodioxol-5-yl)propan-2-amine"
"InChI=1S/C11H15NO2/c1-8(12-2)5-9-3-4-10-11(6-9)14-7-13-10/h3-4,6,8,12H,5,7H2,1-2H3",SHXWCVYOXRDMCX-UHFFFAOYSA-N,O1c2cc(ccc2OC1)CC(NC)C,C13H18O2,193.246,1.9420,3,188.00,0,94.953049,1,"1-(1,3-benzodioxol-5-yl)-<I>N</I>-methyl-propan-2-amine"
"InChI=1S/C8H8N4O2/c9-3-1-4-6(5(10)2-3)8(14)12-11-7(4)13/h1-2H,9-10H2,(H,11,13)(H,12,14)",BAOICLZZDLLDRL-UHFFFAOYSA-N,O=C1NNC(=O)c2c1c(N)cc(N)c2,C13H9Cl3N2O,192.17799,-0.7240,0,160.50,1,265.41122,0,"5,7-diamino-2,3-dihydrophthalazine-1,4-dione"
"InChI=1S/C10H16N2O11P2/c1-5-3-12(10(14)11-9(5)13)8-2-6(23-25(18,19)20)7(22-8)4-21-24(15,16)17/h3,6-8H,2,4H2,1H3,(H,11,13,14)(H2,15,16,17)(H2,18,19,20)",CSNCBOPUCJOHLS-UHFFFAOYSA-N,P(OC1CC(OC1COP(O)(O)=O)N1C=C(C)C(=O)NC1=O)(O)(O)=O,C14H12O3,402.189,-3.5630,6,268.88,1,397.72604,1,"[5-(5-methyl-2,4-dioxo-pyrimidin-1-yl)-2-(phosphonooxymethyl)tetrahydrofuran-3-yl] dihydrogen phosphate"
"InChI=1S/C19H37N5O5/c1-11(2)9-13(10-14(25)24-29)17(27)23-15(19(4,5)6)18(28)22-12(3)16(26)21-8-7-20/h11-13,15,29H,7-10,20H2,1-6H3,(H,21,26)(H,22,28)(H,23,27)(H,24,25)",LMIQCBIEAHJAMZ-UHFFFAOYSA-N,O=C(NC(C(C)(C)C)C(=O)NC(C(=O)NCCN)C)C(CC(C)C)CC(=O)NO,C15H12N2O,415.535,-0.3360,16,357.13,1,264.95551,1,"<I>N</I>-[1-[[2-(2-aminoethylamino)-1-methyl-2-oxo-ethyl]carbamoyl]-2,2-dimethyl-propyl]-2-[2-(hydroxyamino)-2-oxo-ethyl]-4-methyl-pentanamide"
"InChI=1S/C11H21NO4/c1-8(12)9(7-11(15)16)5-3-2-4-6-10(13)14/h8-9H,2-7,12H2,1H3,(H,13,14)(H,15,16)",NHQUUILSXUJSSP-UHFFFAOYSA-N,OC(=O)CC(C(N)C)CCCCCC(O)=O,C4H4KNO4S,231.29199,1.0770,9,205.00,0,211.03014,0,3-(1-aminoethyl)nonanedioic acid
"InChI=1S/C28H29N3O4S/c32-28(33)27(18-22-19-29-26-9-5-4-8-25(22)26)30-36(34,35)24-12-10-23(11-13-24)31-16-14-21(15-17-31)20-6-2-1-3-7-20/h1-13,19,21,27,29-30H,14-18H2,(H,32,33)",ULOTXPTWJAUGGE-UHFFFAOYSA-N,S(=O)(=O)(NC(Cc1c2c([nH]c1)cccc2)C(O)=O)c1ccc(N2CCC(CC2)c2ccccc2)cc1,C7H6O3,503.62299,4.8840,8,448.00,1,193.77478,1,3-(1H-indol-3-yl)-2-[[4-(4-phenyl-1-piperidyl)phenyl]sulfonylamino]propanoic acid
"InChI=1S/C32H35BrN2O2S/c33-30-20-23(5-6-25(30)22-35-15-3-4-16-35)19-29-28-12-9-26(36)21-31(28)38-32(29)24-7-10-27(11-8-24)37-18-17-34-13-1-2-14-34/h5-12,20-21,36H,1-4,13-19,22H2",QVDZMCVSIVITGR-UHFFFAOYSA-N,Brc1cc(ccc1CN1CCCC1)Cc1c2c(sc1-c1ccc(OCCN3CCCC3)cc1)cc(O)cc2,C7H8N4O2,591.61401,8.3820,9,512.63,2,106.34332,0,3-[[3-bromo-4-(pyrrolidin-1-ylmethyl)phenyl]methyl]-2-[4-(2-pyrrolidin-1-ylethoxy)phenyl]benzothiophen-6-ol
"InChI=1S/C6H16N4O2/c1-6(2)9(5-3-4-7)10(12)8-11/h6,12H,3-5,7H2,1-2H3",WEHZRCACNLQADC-UHFFFAOYSA-N,ON(N(C(C)C)CCCN)N=O,C8H10N4O2,176.22,-0.6050,6,152.75,0,106.72414,1,<I>N</I>-[3-aminopropyl(isopropyl)amino]-<I>N</I>-hydroxy-nitrous amide
"InChI=1S/C11H26N2/c1-3-5-9-13(10-6-4-2)11-7-8-12/h3-12H2,1-2H3",KYCGURZGBKFEQB-UHFFFAOYSA-N,N(CCCC)(CCCC)CCCN,C8H14ClN5,186.343,2.4870,9,201.25,0,79.576996,1,"<I>N</I>',<I>N</I>'-dibutylpropane-1,3-diamine"
"InChI=1S/C19H18N2O3/c1-11-9-21(11)14-8-15(23)18-16(19(14)24)13(10-22)17(20(18)2)12-6-4-3-5-7-12/h3-8,11,22H,9-10H2,1-2H3",RQFCSAVLOHDQNB-UHFFFAOYSA-N,O=C1c2c(n(C)c(-c3ccccc3)c2CO)C(=O)C=C1N1CC1C,C8H8O3,322.36398,2.4350,3,307.75,0,139.10641,1,"3-(hydroxymethyl)-1-methyl-5-(2-methylaziridin-1-yl)-2-phenyl-indole-4,7-dione"
"InChI=1S/C13H9NO5/c15-11(13(18)19)14-10-6-8-4-2-1-3-7(8)5-9(10)12(16)17/h1-6H,(H,14,15)(H,16,17)(H,18,19)",DQBLKSRRWDWNKQ-UHFFFAOYSA-N,OC(=O)c1cc2c(cc1NC(=O)C(O)=O)cccc2,C8H9NO2,259.21698,1.5470,4,224.88,0,223.62846,0,3-(oxaloamino)naphthalene-2-carboxylic acid
"InChI=1S/C7H8NO5P/c9-7(10)6-5(2-1-3-8-6)4-14(11,12)13/h1-3H,4H2,(H,9,10)(H2,11,12,13)",ROSWJUKEABEPFJ-UHFFFAOYSA-N,P(O)(O)(=O)Cc1cccnc1C(O)=O,C9H10O3,217.11699,-1.2410,3,157.00,0,214.79889,1,3-(phosphonomethyl)pyridine-2-carboxylic acid
"InChI=1S/C6H10OS2/c1-2-5-9(7)6-3-4-8/h2-4,8H,1,5-6H2",HSVQDVSVQIMRSS-UHFFFAOYSA-N,S(=O)(CC=CS)CC=C,C9H8O2,162.27701,0.1940,4,139.75,0,159.72113,1,(<I>E</I>)-3-allylsulfinylprop-1-ene-1-thiol
"InChI=1S/C28H28N4O3/c29-26(30)22-12-7-13-23(18-22)27(34)31-24(19-8-3-1-4-9-19)28(35)32-16-14-21(15-17-32)25(33)20-10-5-2-6-11-20/h1-13,18,21,24H,14-17H2,(H3,29,30)(H,31,34)",SEXVRUMCMJFNTJ-UHFFFAOYSA-N,O=C(C1CCN(CC1)C(=O)C(NC(=O)c1cc(ccc1)C(N)=N)c1ccccc1)c1ccccc1,C10H11ClO3,468.55698,3.6820,9,445.25,0,210.78593,0,<I>N</I>-[2-(4-benzoyl-1-piperidyl)-2-oxo-1-phenyl-ethyl]-3-carbamimidoyl-benzamide
"InChI=1S/C19H17BrO3/c1-11(2)16(12-7-9-13(20)10-8-12)17-18(21)14-5-3-4-6-15(14)23-19(17)22/h3-11,16,22H,1-2H3",RYBXZSHOKHMKBP-UHFFFAOYSA-N,Brc1ccc(cc1)C(C(C)C)C=1C(=O)c2c(OC=1O)cccc2,C10H11N3O3S,373.246,5.2780,3,298.50,1,50.983395,1,3-[1-(4-bromophenyl)-2-methyl-propyl]-2-hydroxy-chromen-4-one
"InChI=1S/C20H21N3O2/c24-14-22-9-11-23(12-10-22)16-7-5-15(6-8-16)13-18-17-3-1-2-4-19(17)21-20(18)25/h1-8,14,18H,9-13H2,(H,21,25)",AZGZGRJOCKSSHA-UHFFFAOYSA-N,O=C1Nc2c(cccc2)C1Cc1ccc(N2CCN(CC2)C=O)cc1,C10H12O3,335.40698,1.7000,4,321.13,0,153.89981,0,4-[4-[(2-oxoindolin-3-yl)methyl]phenyl]piperazine-1-carbaldehyde
"InChI=1S/C32H37N3O3S/c36-26-8-11-28-29(21-24-5-9-27(10-6-24)37-19-17-34-13-1-2-14-34)32(39-30(28)22-26)25-7-12-31(33-23-25)38-20-18-35-15-3-4-16-35/h5-12,22-23,36H,1-4,13-21H2",KEDLOQLGBOISAT-UHFFFAOYSA-N,s1c2c(ccc(O)c2)c(Cc2ccc(OCCN3CCCC3)cc2)c1-c1ccc(OCCN2CCCC2)nc1,C12H7Cl3O2,543.73199,6.5050,11,510.63,2,128.59561,1,3-[[4-(2-pyrrolidin-1-ylethoxy)phenyl]methyl]-2-[6-(2-pyrrolidin-1-ylethoxy)-3-pyridyl]benzothiophen-6-ol
"InChI=1S/C33H38N2O2S/c1-2-8-32-30(7-1)31(25-26-9-13-28(14-10-26)36-23-21-34-17-3-4-18-34)33(38-32)27-11-15-29(16-12-27)37-24-22-35-19-5-6-20-35/h1-2,7-16H,3-6,17-25H2",MBVYSLWWSSHIRS-UHFFFAOYSA-N,s1c2c(cccc2)c(Cc2ccc(OCCN3CCCC3)cc2)c1-c1ccc(OCCN2CCCC2)cc1,C13H10N2O3S,526.745,7.6040,11,511.38,2,65.81916,1,1-[2-[4-[[2-[4-(2-pyrrolidin-1-ylethoxy)phenyl]benzothiophen-3-yl]methyl]phenoxy]ethyl]pyrrolidine
"InChI=1S/C20H23F3N4O5S/c1-12(2)17(18(29)20(21,22)23)25-16(28)11-27-15(13-7-5-4-6-8-13)10-9-14(19(27)30)26-33(31,32)24-3/h4-10,12,17,24,26H,11H2,1-3H3,(H,25,28)",MYFMPKCOIMRDDD-UHFFFAOYSA-N,S(=O)(=O)(NC1=CC=C(N(CC(=O)NC(C(C)C)C(=O)C(F)(F)F)C1=O)c1ccccc1)NC,C13H18O2,488.487,2.4048,11,381.75,0,326.49841,0,"2-[3-(methylsulfamoylamino)-2-oxo-6-phenyl-1-pyridyl]-<I>N</I>-(3,3,3-trifluoro-1-isopropyl-2-oxo-propyl)acetamide"
"InChI=1S/C32H46O7/c1-18(2)14-21(35)15-20(17-33)27-24(36)16-31(6)23-8-9-25-29(4,22(23)10-13-30(27,31)5)12-11-26(39-19(3)34)32(25,7)28(37)38/h8,14,17,20,22,24-27,36H,9-13,15-16H2,1-7H3,(H,37,38)",MKGUGMKLWZNKQT-UHFFFAOYSA-N,O(C(=O)C)C1CCC2(C(CC=C3C2CCC2(C)C(C(CC(=O)C=C(C)C)C=O)C(O)CC23C)C1(C(O)=O)C)C,C13H9Cl3N2O,542.71301,3.3400,8,440.00,2,202.81264,1,"3-acetoxy-17-(1-formyl-5-methyl-3-oxo-hex-4-enyl)-16-hydroxy-4,10,13,14-tetramethyl-2,3,5,6,9,11,12,15,16,17-decahydro-1<I>H</I>-cyclopenta[a]phenanthrene-4-carboxylic acid"
"InChI=1S/C2H4N4/c3-2-4-1-5-6-2/h1H,(H3,3,4,5,6)",KLSJWNVTNUYHDU-UHFFFAOYSA-N,[nH]1cnnc1N,C15H12N2O,84.082001,-0.8930,0,71.38,0,168.08385,1,"4<I>H</I>-1,2,4-triazol-3-amine"
"InChI=1S/C10H12ClNO/c11-7-10(13)9(12)6-8-4-2-1-3-5-8/h1-5,9H,6-7,12H2",CNNSBPMDYXZFTQ-UHFFFAOYSA-N,ClCC(=O)C(N)Cc1ccccc1,C4H4KNO4S,197.66499,1.4800,4,179.63,0,140.70981,1,3-amino-1-chloro-4-phenyl-butan-2-one
"InChI=1S/C9H13ClNO3P/c10-9-3-1-7(2-4-9)8(5-11)6-15(12,13)14/h1-4,8H,5-6,11H2,(H2,12,13,14)",VSGNGLJPOGUDON-UHFFFAOYSA-N,Clc1ccc(cc1)C(CN)CP(O)(O)=O,C7H6O3,249.634,-0.0240,4,187.13,0,189.33739,0,[3-amino-2-(4-chlorophenyl)propyl]phosphonic acid
"InChI=1S/C15H19N3O2/c16-15(10-12-4-2-1-3-5-12)7-9-17-8-6-13(11-19)18(17)14(15)20/h1-5,11,13H,6-10,16H2",JVDDTUQPPBUQDD-UHFFFAOYSA-N,O=C1N2N(CCC1(N)Cc1ccccc1)CCC2C=O,C7H8N4O2,273.336,0.3650,3,245.38,0,128.52335,1,"6-amino-6-benzyl-5-oxo-2,3,7,8-tetrahydro-1<I>H</I>-pyrazolo[1,2-a]pyridazine-3-carbaldehyde"
"InChI=1S/C20H20N2O3S/c1-2-22(16-9-5-3-6-10-16)26(23,24)18-13-14-20(19(21)15-18)25-17-11-7-4-8-12-17/h3-15H,2,21H2,1H3",GHUSPTPILIZGPQ-UHFFFAOYSA-N,S(=O)(=O)(N(CC)c1ccccc1)c1cc(N)c(Oc2ccccc2)cc1,C8H10N4O2,368.457,3.6200,6,330.38,0,111.50459,0,3-amino-<I>N</I>-ethyl-4-phenoxy-<I>N</I>-phenyl-benzenesulfonamide
"InChI=1S/C32H41N3O4/c1-21(2)17-27(34-32(38)25-13-15-26(33)16-14-25)19-29(36)28(18-24-11-6-5-7-12-24)35-30(37)20-39-31-22(3)9-8-10-23(31)4/h5-16,21,27-29,36H,17-20,33H2,1-4H3,(H,34,38)(H,35,37)",APJAEXGNDLFGPD-UHFFFAOYSA-N,O(CC(=O)NC(Cc1ccccc1)C(O)CC(NC(=O)c1ccc(N)cc1)CC(C)C)c1c(cccc1C)C,C8H14ClN5,531.69696,5.5660,15,511.00,1,166.08571,1,"4-amino-<I>N</I>-[4-[[2-(2,6-dimethylphenoxy)acetyl]amino]-3-hydroxy-1-isobutyl-5-phenyl-pentyl]benzamide"
"InChI=1S/C7H8N2O/c8-6-3-1-2-5(4-6)7(9)10/h1-4H,8H2,(H2,9,10)",GSCPDZHWVNUUFI-UHFFFAOYSA-N,O=C(N)c1cc(N)ccc1,C8H8O3,136.15399,0.2140,1,128.50,0,169.76299,1,3-aminobenzamide
"InChI=1S/C3H9NO3S/c4-2-1-3-8(5,6)7/h1-4H2,(H,5,6,7)",SNKZJIOFVMKAOJ-UHFFFAOYSA-N,S(O)(=O)(=O)CCCN,C8H9NO2,139.175,-1.3250,3,94.13,0,190.62225,0,3-aminopropane-1-sulfonic acid
"InChI=1S/C7H4BrN3O2/c8-7-4-2-1-3-5(11(12)13)6(4)9-10-7/h1-3H,(H,9,10)",NFSTZPMYAZRZPC-UHFFFAOYSA-N,Brc1n[nH]c2c1cccc2[N+](=O)[O-],C9H8O2,242.032,2.9050,1,165.88,0,132.41798,0,3-bromo-7-nitro-1<I>H</I>-indazole
"InChI=1S/C10H17NO4/c1-5(2)7-4-11-9(10(14)15)6(7)3-8(12)13/h5-7,9,11H,3-4H2,1-2H3,(H,12,13)(H,14,15)",JQPDCKOQOOQUSC-UHFFFAOYSA-N,OC(=O)C1NCC(C(C)C)C1CC(O)=O,C10H11ClO3,215.24899,0.6530,4,179.88,0,198.53682,1,3-(carboxymethyl)-4-isopropyl-pyrrolidine-2-carboxylic acid