InChI,Key,smiles,Formula,Weight,logP(o/w),b_rotN,vol,lip_violation,ASA_P,Natural,ChemicalName
"InChI=1S/C34H58N5O26P/c1-9(43)36-12(30(35)54)4-17(46)39-31-18(37-10(2)44)21(48)27(13(5-40)59-31)63-32-19(38-11(3)45)22(49)28(14(6-41)60-32)64-34-26(53)24(51)29(15(7-42)61-34)65-33-25(52)23(50)20(47)16 (62-33)8-58-66(55,56)57/h12-16,18-29,31-34,40-42,47-53H",HCAJSENPKKZRLZ-UHFFFAOYSA-N,P(OCC1OC(OC2C(O)C(O)C(OC2CO)OC2C(O)C(NC(=O)C)C(OC2CO)OC2C(O)C(NC(=O)C)C(OC2CO)NC(=O)CC(NC(=O)C)C(=O)N)C(O)C(O)C1O)(O)(O)=O,C8H10N4O2,983.82098,-11.6190,23,705.63,3,690.86487,0,"[6-[6-[5-acetamido-6-[5-acetamido-6-[(3-acetamido-4-amino-4-oxo-butanoyl)amino]-4-hydroxy-2-(hydroxymethyl)tetrahydropyran-3-yl]oxy-4-hydroxy-2-(hydroxymethyl)tetrahydropyran-3-yl]oxy-4,5-dihydroxy-2- (hydroxymethyl)tetrahydropyran-3-yl]oxy-3,4,5-trihydroxy-tetrahydropyran-2-yl]methyl dihydrogen phosphate"
"InChI=1S/C2H2O3/c3-1-2(4)5/h1H,(H,4,5)",HHLFWLYXYJOTON-UHFFFAOYSA-N,OC(=O)C=O,C8H14ClN5,74.034996,-0.4500,1,57.13,0,180.48978,1,oxaldehydic acid
"InChI=1S/C10H14N5O8P/c11-10-13-7-4(8(18)14-10)12-2-15(7)9-6(17)5(16)3(23-9)1-22-24(19,20)21/h2-3,5-6,9,16-17H,1H2,(H2,19,20,21)(H3,11,13,14,18)",RQFCJASXJCIDSX-UHFFFAOYSA-N,P(OCC1OC(n2c3NC(=NC(=O)c3nc2)N)C(O)C1O)(O)(O)=O,C8H8O3,363.22299,-3.1070,4,254.25,2,412.17316,0,"[5-(2-amino-6-oxo-3<I>H</I>-purin-9-yl)-3,4-dihydroxy-tetrahydrofuran-2-yl]methyl dihydrogen phosphate"
"InChI=1S/C10H16N5O14P3/c11-10-13-7-4(8(18)14-10)12-2-15(7)9-6(17)5(16)3(27-9)1-26-31(22,23)29-32(24,25)28-30(19,20)21/h2-3,5-6,9,16-17H,1H2,(H,22,23)(H,24,25)(H2,19,20,21)(H3,11,13,14,18)",XKMLYUALXHKNFT-UHFFFAOYSA-N,P(OCC1OC(n2c3NC(=NC(=O)c3nc2)N)C(O)C1O)(OP(OP(O)(O)=O)(O)=O)(O)=O,C8H9NO2,523.18097,-4.8710,8,318.75,3,570.86505,1,"[[5-(2-amino-6-oxo-3<I>H</I>-purin-9-yl)-3,4-dihydroxy-tetrahydrofuran-2-yl]methoxy-hydroxy-phosphoryl] phosphono hydrogen phosphate"
"InChI=1S/C3H7N3O2/c4-3(5)6-1-2(7)8/h1H2,(H,7,8)(H4,4,5,6)",BPMFZUMJYQTVII-UHFFFAOYSA-N,OC(=O)CNC(N)=N,C9H10O3,117.108,-0.8870,3,92.88,0,238.9014,1,2-guanidinoacetic acid
"InChI=1S/C5H5N5O/c6-5-9-3-2(4(11)10-5)7-1-8-3/h1H,(H4,6,7,8,9,10,11)",UYTPUPDQBNUYGX-UHFFFAOYSA-N,Oc1nc(nc2nc[nH]c12)N,C9H8O2,151.129,-0.8599,0,123.88,0,236.39006,0,2-amino-7<I>H</I>-purin-6-ol
"InChI=1S/C10H13N5O5/c11-10-13-7-4(8(19)14-10)12-2-15(7)9-6(18)5(17)3(1-16)20-9/h2-3,5-6,9,16-18H,1H2,(H3,11,13,14,19)",NYHBQMYGNKIUIF-UHFFFAOYSA-N,O1C(CO)C(O)C(O)C1n1c2NC(=NC(=O)c2nc1)N,C10H11ClO3,283.24399,-2.2200,2,217.38,1,330.88815,1,"2-amino-9-[3,4-dihydroxy-5-(hydroxymethyl)tetrahydrofuran-2-yl]-3<I>H</I>-purin-6-one"
"InChI=1S/C10H17N5O17P4/c11-10-13-7-4(8(17)14-10)12-2-15(7)9-5(16)6(30-36(26,27)32-34(21,22)23)3(29-9)1-28-35(24,25)31-33(18,19)20/h2-3,5-6,9,16H,1H2,(H,24,25)(H,26,27)(H2,18,19,20)(H2,21,22,23)(H3,11, 13,14,17)",BUFLLCUFNHESEH-UHFFFAOYSA-N,P(OC1C(O)C(OC1COP(OP(O)(O)=O)(O)=O)n1c2NC(=NC(=O)c2nc1)N)(OP(O)(O)=O)(O)=O,C10H11N3O3S,603.15997,-5.7580,10,354.00,3,626.79272,0,[5-(2-amino-6-oxo-3<I>H</I>-purin-9-yl)-4-hydroxy-2-[[hydroxy(phosphonooxy)phosphoryl]oxymethyl]tetrahydrofuran-3-yl] phosphono hydrogen phosphate
"InChI=1S/CH2O3/c2-1(3)4/h(H2,2,3,4)",BVKZGUZCCUSVTD-UHFFFAOYSA-N,OC(O)=O,C10H12O3,62.023998,-0.0570,0,42.88,0,175.99223,1,carbonic acid
InChI=1S/CHN/c1-2/h1H,LELOWRISYMNNSU-UHFFFAOYSA-N,N#C,C12H7Cl3O2,27.025999,-0.1210,0,34.75,0,127.55731,1,formonitrile
"InChI=1S/CH2O3/c2-1(3)4/h(H2,2,3,4)/p-1",BVKZGUZCCUSVTD-UHFFFAOYSA-M,OC(=O)[O-],C13H10N2O3S,61.015999,0.0640,0,42.88,0,170.17889,0,hydrogen carbonate
"InChI=1S/C49H72N4O5/c1-10-35-31(6)40-26-45-49(46(54)19-13-18-30(5)17-12-16-29(4)15-11-14-28(2)3)34(9)41(53-45)24-38-32(7)36(20-22-47(55)56)43(51-38)27-44-37(21-23-48(57)58)33(8)39(52-44)25-42(35)50-40 /h10,14,16,18,24-27,31-34,36-37,41,43,45-46,49-54H,1,11",QDWRZFOSFZXXTP-UHFFFAOYSA-N,OC(CCC=C(CCC=C(CCC=C(C)C)C)C)C1C2NC(C=C3NC(C=C4NC(=CC=5NC(=C2)C(C)C=5C=C)C(C)C4CCC(O)=O)C(CCC(O)=O)C3C)C1C,C13H18O2,797.138,7.2030,17,752.88,3,341.8432,1,"3-[(4<I>Z</I>,10<I>Z</I>,15<I>Z</I>,19<I>Z</I>)-18-(2-carboxyethyl)-8-[(4<I>E</I>,8<I>E</I>)-1-hydroxy-5,9,13-trimethyl-tetradeca-4,8,12-trienyl]-3,7,12,17-tetramethyl-13-vinyl-1,2,3,6,7,8,9,12,17,18, 21,22,23,24-tetradecahydroporphyrin-2-yl]propanoic acid"
"InChI=1S/C26H42N2O37S5/c1-4(30)27-7-9(31)13(6(56-23(7)39)3-55-67(43,44)45)58-26-19(65-70(52,53)54)12(34)16(20(62-26)22(37)38)60-24-8(28-66(40,41)42)15(63-68(46,47)48)14(5(2-29)57-24)59-25-18(64-69(49, 50)51)11(33)10(32)17(61-25)21(35)36/h5-20,23-26,28-29,3",HTTJABKRGRZYRN-UHFFFAOYSA-N,S(O)(=O)(=O)NC1C(OS(O)(=O)=O)C(OC2OC(C(O)=O)C(O)C(O)C2OS(O)(=O)=O)C(OC1OC1C(O)C(OS(O)(=O)=O)C(OC1C(O)=O)OC1C(O)C(NC(=O)C)C(OC1COS(O)(=O)=O)O)CO,C13H9Cl3N2O,1134.929,-10.8498,22,656.25,3,875.40521,0,"6-[6-[6-[5-acetamido-4,6-dihydroxy-2-(sulfooxymethyl)tetrahydropyran-3-yl]oxy-2-carboxy-4-hydroxy-5-sulfooxy-tetrahydropyran-3-yl]oxy-2-(hydroxymethyl)-5-(sulfoamino)-4-sulfooxy-tetrahydropyran-3-yl]o xy-3,4-dihydroxy-5-sulfooxy-tetrahydropyran-2-carboxylic acid"
"InChI=1S/C6H9N3O2/c7-5(6(10)11)1-4-2-8-3-9-4/h2-3,5H,1,7H2,(H,8,9)(H,10,11)",HNDVDQJCIGZPNO-UHFFFAOYSA-N,OC(=O)C(N)Cc1nc[nH]c1,C14H12O3,155.157,-3.9917,3,132.38,0,208.85803,1,2-amino-3-(1<I>H</I>-imidazol-4-yl)propanoic acid
"InChI=1S/C5H9N3/c6-2-1-5-3-7-4-8-5/h3-4H,1-2,6H2,(H,7,8)",NTYJJOPFIAHURM-UHFFFAOYSA-N,[nH]1cc(nc1)CCN,C15H12N2O,111.14799,-1.2190,2,107.63,0,124.3017,1,2-(1<I>H</I>-imidazol-4-yl)ethanamine
"InChI=1S/C6H9N3O/c7-5(3-10)1-6-2-8-4-9-6/h2-5H,1,7H2,(H,8,9)",VYOIELONWKIZJS-UHFFFAOYSA-N,O=CC(N)Cc1[nH]cnc1,C4H4KNO4S,139.158,-1.3430,3,127.00,0,160.46863,0,2-amino-3-(1<I>H</I>-imidazol-5-yl)propanal
"InChI=1S/C6H11N3O/c7-5(3-10)1-6-2-8-4-9-6/h2,4-5,10H,1,3,7H2,(H,8,9)",ZQISRDCJNBUVMM-UHFFFAOYSA-N,OCC(N)Cc1[nH]cnc1,C7H6O3,141.174,-1.7920,3,127.00,0,156.97057,1,2-amino-3-(1<I>H</I>-imidazol-5-yl)propan-1-ol
"InChI=1S/C6H9N3O/c1-4-8-2-5(3-10)6(7)9-4/h2,10H,3H2,1H3,(H2,7,8,9)",VUTBELPREDJDDH-UHFFFAOYSA-N,OCc1cnc(nc1N)C,C7H8N4O2,139.158,-0.9300,1,127.00,0,150.40749,0,(4-amino-2-methyl-pyrimidin-5-yl)methanol
"InChI=1S/C4H9NO2S/c5-3(1-2-8)4(6)7/h3,8H,1-2,5H2,(H,6,7)",FFFHZYDWPBMWHY-UHFFFAOYSA-N,SCCC(N)C(O)=O,C8H10N4O2,135.187,-2.5057,3,106.13,0,206.61864,1,2-amino-4-sulfanyl-butanoic acid
"InChI=1S/C4H9NO3/c5-3(1-2-6)4(7)8/h3,6H,1-2,5H2,(H,7,8)",UKAUYVFTDYCKQA-UHFFFAOYSA-N,OC(=O)C(N)CCO,C8H14ClN5,119.12,-3.6507,3,97.00,0,201.87321,1,2-amino-4-hydroxy-butanoic acid
"InChI=1S/C8H8O4/c9-6-1-2-7(10)5(3-6)4-8(11)12/h1-3,9-10H,4H2,(H,11,12)",IGMNYECMUMZDDF-UHFFFAOYSA-N,Oc1ccc(O)cc1CC(O)=O,C8H8O3,168.14799,1.0900,2,144.50,0,172.34023,1,"2-(2,5-dihydroxyphenyl)acetic acid"
InChI=1S/CHNS/c2-1-3/h3H,ZMZDMBWJUHKJPS-UHFFFAOYSA-N,SC#N,C8H9NO2,59.092003,0.4280,0,48.13,0,156.28813,0,thiocyanic acid
"InChI=1S/C6H8N2O4/c9-4(10)2-1-3-5(11)8-6(12)7-3/h3H,1-2H2,(H,9,10)(H2,7,8,11,12)",VWFWNXQAMGDPGG-UHFFFAOYSA-N,O=C1NC(=O)NC1CCC(O)=O,C9H10O3,172.14,-1.1580,3,136.13,0,236.08055,1,"3-(2,5-dioxoimidazolidin-4-yl)propanoic acid"
InChI=1S/H2/h1H,UFHFLCQGNIYNRP-UHFFFAOYSA-N,[HH],C9H8O2,2.016,0.2680,0,7.13,0,0,1,molecular hydrogen
InChI=1S/H2O2/c1-2/h1-2H,MHAJPDPJQMAIIY-UHFFFAOYSA-N,OO,C10H11ClO3,34.014,-0.7100,0,19.63,0,141.11752,0,hydrogen peroxide
"InChI=1S/C6H6O2/c7-5-1-2-6(8)4-3-5/h1-4,7-8H",QIGBRXMKCJKVMJ-UHFFFAOYSA-N,Oc1ccc(O)cc1,C10H11N3O3S,110.112,1.2900,0,101.38,0,96.184448,1,"benzene-1,4-diol"
"InChI=1S/C5H12O8P2/c1-5(4-6)2-3-12-15(10,11)13-14(7,8)9/h2,6H,3-4H2,1H3,(H,10,11)(H2,7,8,9)",MDSIZRKJVDMQOQ-UHFFFAOYSA-N,P(OCC=C(CO)C)(OP(O)(O)=O)(O)=O,C10H12O3,262.091,-2.1790,6,167.00,0,305.4624,0,[(<I>E</I>)-4-hydroxy-3-methyl-but-2-enyl] phosphono hydrogen phosphate
"InChI=1S/H3NO/c1-2/h2H,1H2",AVXURJPOCDRRFD-UHFFFAOYSA-N,ON,C12H7Cl3O2,33.029999,-1.1790,0,22.13,0,152.675,1,hydroxylamine
"InChI=1S/C40H46N4O17/c45-17-32-25(12-40(60)61)21(4-8-36(52)53)29(44-32)15-31-24(11-39(58)59)20(3-7-35(50)51)28(43-31)14-30-23(10-38(56)57)19(2-6-34(48)49)27(42-30)13-26-22(9-37(54)55)18(16-41-26)1-5-3 3(46)47/h16,41-45H,1-15,17H2,(H,46,47)(H,48,49)(H,50,51",WDFJYRZCZIUBPR-UHFFFAOYSA-N,OCc1[nH]c(Cc2[nH]c(Cc3[nH]c(Cc4[nH]cc(CCC(O)=O)c4CC(O)=O)c(CCC(O)=O)c3CC(O)=O)c(CCC(O)=O)c2CC(O)=O)c(CCC(O)=O)c1CC(O)=O,C13H10N2O3S,854.81897,0.7840,27,688.38,3,630.35712,1,3-[5-[[3-(2-carboxyethyl)-5-[[3-(2-carboxyethyl)-5-[[3-(2-carboxyethyl)-4-(carboxymethyl)-5-(hydroxymethyl)-1<I>H</I>-pyrrol-2-yl]methyl]-4-(carboxymethyl)-1<I>H</I>-pyrrol-2-yl]methyl]-4-(carboxymeth yl)-1<I>H</I>-pyrrol-2-yl]methyl]-4-(carboxymethyl)-1<I>H</I>-pyrrol-3-yl]propanoic acid
"InChI=1S/C5H4N4O/c10-5-3-4(7-1-6-3)8-2-9-5/h1-2H,(H2,6,7,8,9,10)",FDGQSTZJBFJUBT-UHFFFAOYSA-N,Oc1ncnc2nc[nH]c12,C13H18O2,136.114,-0.5549,0,117.50,0,189.17232,0,7<I>H</I>-purin-6-ol
"InChI=1S/C6H13NO2/c1-3-4(2)5(7)6(8)9/h4-5H,3,7H2,1-2H3,(H,8,9)",AGPKZVBTJJNPAG-UHFFFAOYSA-N,OC(=O)C(N)C(CC)C,C13H9Cl3N2O,131.175,-1.6437,3,121.88,0,122.06711,1,2-amino-3-methyl-pentanoic acid
"InChI=1S/C6H9N2O5P/c9-6(3-13-14(10,11)12)1-5-2-7-4-8-5/h2,4H,1,3H2,(H,7,8)(H2,10,11,12)",YCFFMSOLUMRAMD-UHFFFAOYSA-N,P(OCC(=O)Cc1nc[nH]c1)(O)(O)=O,C14H12O3,220.121,-2.3290,5,161.13,0,266.10538,0,[3-(1<I>H</I>-imidazol-4-yl)-2-oxo-propyl] dihydrogen phosphate
"InChI=1S/C6H8N2O3/c9-5(6(10)11)1-4-2-7-3-8-4/h2-3,5,9H,1H2,(H,7,8)(H,10,11)",ACZFBYCNAVEFLC-UHFFFAOYSA-N,OC(Cc1[nH]cnc1)C(O)=O,C15H12N2O,156.14099,-1.3710,3,130.63,0,162.46077,1,2-hydroxy-3-(1<I>H</I>-imidazol-5-yl)propanoic acid
"InChI=1S/C6H6N2O3/c9-5(6(10)11)1-4-2-7-3-8-4/h2-3H,1H2,(H,7,8)(H,10,11)",JEJNWEREQWMOHB-UHFFFAOYSA-N,OC(=O)C(=O)Cc1[nH]cnc1,C4H4KNO4S,154.125,-1.2430,3,130.13,0,186.01753,1,3-(1<I>H</I>-imidazol-5-yl)-2-oxo-propanoic acid
"InChI=1S/C3H4N2/c1-2-5-3-4-1/h1-3H,(H,4,5)",RAXXELZNTBOGNW-UHFFFAOYSA-N,[nH]1ccnc1,C7H6O3,68.079002,-0.5230,0,69.38,0,79.180145,0,imidazole
"InChI=1S/C4H5NO4/c5-2(4(8)9)1-3(6)7/h5H,1H2,(H,6,7)(H,8,9)/b5-2+",NMUOATVLLQEYHI-GORDUTHDSA-N,OC(=O)C(=N)CC(O)=O,C7H8N4O2,131.08699,-0.9830,3,105.50,0,243.75073,1,2-iminobutanedioic acid
"InChI=1S/C10H13N4O8P/c15-6-4(1-21-23(18,19)20)22-10(7(6)16)14-3-13-5-8(14)11-2-12-9(5)17/h2-4,6-7,10,15-16H,1H2,(H,11,12,17)(H2,18,19,20)",GRSZFWQUAKGDAV-UHFFFAOYSA-N,P(OCC1OC(n2c3NC=NC(=O)c3nc2)C(O)C1O)(O)(O)=O,C8H10N4O2,348.20801,-2.7880,4,247.13,1,361.04175,0,"[3,4-dihydroxy-5-(6-oxo-3<I>H</I>-purin-9-yl)tetrahydrofuran-2-yl]methyl dihydrogen phosphate"
"InChI=1S/C8H7N/c1-2-4-8-7(3-1)5-6-9-8/h1-6,9H",SIKJAQJRHWYJAI-UHFFFAOYSA-N,[nH]1c2c(cccc2)cc1,C8H14ClN5,117.151,2.1100,0,124.88,0,52.694538,1,indole
"InChI=1S/C11H14NO6P/c13-10(6-18-19(15,16)17)11(14)8-5-12-9-4-2-1-3-7(8)9/h1-5,10-14H,6H2,(H2,15,16,17)",NQEQTYPJSIEPHW-UHFFFAOYSA-N,P(OCC(O)C(O)c1c2c([nH]c1)cccc2)(O)(O)=O,C8H8O3,287.20801,-0.4480,5,221.00,0,246.4623,1,"[2,3-dihydroxy-3-(1H-indol-3-yl)propyl] dihydrogen phosphate"
"InChI=1S/C10H9NO/c12-6-5-8-7-11-10-4-2-1-3-9(8)10/h1-4,6-7,11H,5H2",WHOOUMGHGSPMGR-UHFFFAOYSA-N,O=CCc1c2c([nH]c1)cccc2,C8H9NO2,159.188,2.1220,2,160.88,0,115.55403,0,2-(1H-indol-3-yl)acetaldehyde
"InChI=1S/C10H9NO2/c12-10(13)5-7-6-11-9-4-2-1-3-8(7)9/h1-4,6,11H,5H2,(H,12,13)/p-1",SEOVTRFCIGRIMH-UHFFFAOYSA-M,O=C([O-])Cc1c2c([nH]c1)cccc2,C9H10O3,174.179,1.9930,2,163.25,0,129.11386,1,2-(1H-indol-3-yl)acetate
"InChI=1S/C10H9NO2/c12-10(13)5-7-6-11-9-4-2-1-3-8(7)9/h1-4,6,11H,5H2,(H,12,13)",SEOVTRFCIGRIMH-UHFFFAOYSA-N,OC(=O)Cc1c2c([nH]c1)cccc2,C9H8O2,175.187,1.8720,2,163.25,0,146.49434,0,2-(1H-indol-3-yl)acetic acid
"InChI=1S/C11H9NO3/c13-10(11(14)15)5-7-6-12-9-4-2-1-3-8(7)9/h1-4,6,12H,5H2,(H,14,15)",RSTKLPZEZYGQPY-UHFFFAOYSA-N,OC(=O)C(=O)Cc1c2c([nH]c1)cccc2,C10H11ClO3,203.19699,1.4270,3,187.00,0,183.74765,1,3-(1H-indol-3-yl)-2-oxo-propanoic acid
"InChI=1S/C10H12N4O5/c15-1-4-6(16)7(17)10(19-4)14-3-13-5-8(14)11-2-12-9(5)18/h2-4,6-7,10,15-17H,1H2,(H,11,12,18)",UGQMRVRMYYASKQ-UHFFFAOYSA-N,O1C(CO)C(O)C(O)C1n1c2NC=NC(=O)c2nc1,C10H11N3O3S,268.229,-1.9010,2,211.38,0,253.89853,1,"9-[3,4-dihydroxy-5-(hydroxymethyl)tetrahydrofuran-2-yl]-3<I>H</I>-purin-6-one"
"InChI=1S/C6H14O12P2/c7-1-2(8)6(18-20(14,15)16)4(10)3(9)5(1)17-19(11,12)13/h1-10H,(H2,11,12,13)(H2,14,15,16)",PELZSPZCXGTUMR-UHFFFAOYSA-N,P(OC1C(O)C(O)C(OP(O)(O)=O)C(O)C1O)(O)(O)=O,C10H12O3,340.11398,-5.2740,4,186.38,2,392.8345,0,"(2,3,5,6-tetrahydroxy-4-phosphonooxy-cyclohexyl) dihydrogen phosphate"
"InChI=1S/C6H15O15P3/c7-1-2(8)5(20-23(13,14)15)6(21-24(16,17)18)3(9)4(1)19-22(10,11)12/h1-9H,(H2,10,11,12)(H2,13,14,15)(H2,16,17,18)",MMWCIQZXVOZEGG-UHFFFAOYSA-N,P(OC1C(OP(O)(O)=O)C(O)C(O)C(OP(O)(O)=O)C1O)(O)(O)=O,C12H7Cl3O2,420.09299,-6.4093,6,217.38,2,460.6864,1,"(2,3,5-trihydroxy-4,6-diphosphonooxy-cyclohexyl) dihydrogen phosphate"
InChI=1S/I2/c1-2,PNDPGZBMCMUPRI-UHFFFAOYSA-N,II,C13H10N2O3S,253.808,2.9920,0,63.38,0,0,0,molecular iodine
"InChI=1S/C25H42N7O17P3S/c1-13(2)24(37)53-8-7-27-15(33)5-6-28-22(36)19(35)25(3,4)10-46-52(43,44)49-51(41,42)45-9-14-18(48-50(38,39)40)17(34)23(47-14)32-12-31-16-20(26)29-11-30-21(16)32/h11-14,17-19,23, 34-35H,5-10H2,1-4H3,(H,27,33)(H,28,36)(H,41,42)(H,43,44",AEWHYWSPVRZHCT-UHFFFAOYSA-N,S(C(=O)C(C)C)CCNC(=O)CCNC(=O)C(O)C(COP(OP(OCC1OC(n2c3ncnc(N)c3nc2)C(O)C1OP(O)(O)=O)(O)=O)(O)=O)(C)C,C13H18O2,837.63098,-4.1879,23,598.50,3,609.16162,1,"<I>S</I>-[2-[3-[[4-[[[5-(6-aminopurin-9-yl)-4-hydroxy-3-phosphonooxy-tetrahydrofuran-2-yl]methoxy-hydroxy-phosphoryl]oxy-hydroxy-phosphoryl]oxy-2-hydroxy-3,3-dimethyl-butanoyl]amino]propanoylamino]eth yl] 2-methylpropanethioate"
"InChI=1S/C10H10O6/c1-5(9(12)13)16-7-4-2-3-6(8(7)11)10(14)15/h2-4,7-8,11H,1H2,(H,12,13)(H,14,15)",NTGWPRCCOQCMGE-UHFFFAOYSA-N,O(C(C(O)=O)=C)C1C=CC=C(C(O)=O)C1O,C13H9Cl3N2O,226.18399,0.3990,4,188.88,0,269.62158,1,"5-(1-carboxyvinyloxy)-6-hydroxy-cyclohexa-1,3-diene-1-carboxylic acid"
"InChI=1S/C26H44N7O17P3S/c1-14(2)9-17(35)54-8-7-28-16(34)5-6-29-24(38)21(37)26(3,4)11-47-53(44,45)50-52(42,43)46-10-15-20(49-51(39,40)41)19(36)25(48-15)33-13-32-18-22(27)30-12-31-23(18)33/h12-15,19-21, 25,36-37H,5-11H2,1-4H3,(H,28,34)(H,29,38)(H,42,43)(H,44",UYVZIWWBJMYRCD-UHFFFAOYSA-N,S(C(=O)CC(C)C)CCNC(=O)CCNC(=O)C(O)C(COP(OP(OCC1OC(n2c3ncnc(N)c3nc2)C(O)C1OP(O)(O)=O)(O)=O)(O)=O)(C)C,C14H12O3,851.65796,-3.7579,24,613.63,3,618.95227,0,"<I>S</I>-[2-[3-[[4-[[[5-(6-aminopurin-9-yl)-4-hydroxy-3-phosphonooxy-tetrahydrofuran-2-yl]methoxy-hydroxy-phosphoryl]oxy-hydroxy-phosphoryl]oxy-2-hydroxy-3,3-dimethyl-butanoyl]amino]propanoylamino]eth yl] 3-methylbutanethioate"
"InChI=1S/C5H6O4/c1-3(5(8)9)2-4(6)7/h1-2H2,(H,6,7)(H,8,9)",LVHBHZANLOWSRM-UHFFFAOYSA-N,OC(=O)C(CC(O)=O)=C,C15H12N2O,130.099,-0.0320,3,108.88,0,213.22096,1,2-methylenebutanedioic acid
"InChI=1S/C10H15N4O14P3/c15-6-4(1-25-30(21,22)28-31(23,24)27-29(18,19)20)26-10(7(6)16)14-3-13-5-8(14)11-2-12-9(5)17/h2-4,6-7,10,15-16H,1H2,(H,21,22)(H,23,24)(H,11,12,17)(H2,18,19,20)",HAEJPQIATWHALX-UHFFFAOYSA-N,P(OCC1OC(n2c3NC=NC(=O)c3nc2)C(O)C1O)(OP(OP(O)(O)=O)(O)=O)(O)=O,C4H4KNO4S,508.16599,-4.5520,8,312.13,3,515.12976,0,"[[3,4-dihydroxy-5-(6-oxo-3<I>H</I>-purin-9-yl)tetrahydrofuran-2-yl]methoxy-hydroxy-phosphoryl] phosphono hydrogen phosphate"
InChI=1S/K/q+1,NPYPAHLBTDXSSS-UHFFFAOYSA-N,[K+],C7H6O3,39.098,-0.0620,0,54.63,0,172.96478,1,potassium(1+)
"InChI=1S/C18H36N4O11/c19-2-6-10(25)12(27)13(28)18(30-6)33-16-5(21)1-4(20)15(14(16)29)32-17-11(26)8(22)9(24)7(3-23)31-17/h4-18,23-29H,1-3,19-22H2",SBUJHOSQTJFQJX-UHFFFAOYSA-N,O1C(CN)C(O)C(O)C(O)C1OC1C(O)C(OC2OC(CO)C(O)C(N)C2O)C(N)CC1N,C7H8N4O2,484.50299,-7.2050,6,353.38,2,429.93973,1,"2-(aminomethyl)-6-[4,6-diamino-3-[4-amino-3,5-dihydroxy-6-(hydroxymethyl)tetrahydropyran-2-yl]oxy-2-hydroxy-cyclohexoxy]tetrahydropyran-3,4,5-triol"
"InChI=1S/C18H37N5O10/c19-2-6-11(26)12(27)9(23)17(30-6)32-15-4(20)1-5(21)16(14(15)29)33-18-13(28)8(22)10(25)7(3-24)31-18/h4-18,24-29H,1-3,19-23H2",SKKLOUVUUNMCJE-UHFFFAOYSA-N,O1C(CN)C(O)C(O)C(N)C1OC1C(O)C(OC2OC(CO)C(O)C(N)C2O)C(N)CC1N,C8H10N4O2,483.51898,-7.4270,6,356.00,2,412.36771,0,"5-amino-2-(aminomethyl)-6-[4,6-diamino-3-[4-amino-3,5-dihydroxy-6-(hydroxymethyl)tetrahydropyran-2-yl]oxy-2-hydroxy-cyclohexoxy]tetrahydropyran-3,4-diol"
"InChI=1S/C8H14O8/c9-2-5(12)7(14)6(13)3(10)1-4(11)8(15)16/h3,5-7,9-10,12-14H,1-2H2,(H,15,16)",KYQCXUMVJGMDNG-UHFFFAOYSA-N,OC(C(O)C(O)CO)C(O)CC(=O)C(O)=O,C8H14ClN5,238.192,-3.5480,7,174.00,1,315.31012,1,"4,5,6,7,8-pentahydroxy-2-oxo-octanoic acid"
"InChI=1S/C8H15O11P/c9-3(1-4(10)8(14)15)6(12)7(13)5(11)2-19-20(16,17)18/h3,5-7,9,11-13H,1-2H2,(H,14,15)(H2,16,17,18)",RTNBXJBOAIDPME-UHFFFAOYSA-N,P(OCC(O)C(O)C(O)C(O)CC(=O)C(O)=O)(O)(O)=O,C8H8O3,318.17099,-4.4350,9,208.88,2,375.27451,0,"4,5,6,7-tetrahydroxy-2-oxo-8-phosphonooxy-octanoic acid"
"InChI=1S/C76H142N2O30P2/c1-5-9-13-17-21-25-29-33-37-41-53(80)45-61(86)77-65-71(104-63(88)47-55(82)43-39-35-31-27-23-19-15-11-7-3)68(91)59(102-74(65)108-110(97,98)99)51-100-73-66(78-62(87)46-54(81)42-3 8-34-30-26-22-18-14-10-6-2)72(105-64(89)48-56(83)44-40-",GPNCBCJEDRRCDW-UHFFFAOYSA-N,P(OC1C(OC(=O)CC(O)CCCCCCCCCCC)C(NC(=O)CC(O)CCCCCCCCCCC)C(OC1COC1(OC(C(O)CO)C(O)C(O)C1)C(O)=O)OCC1OC(OP(O)(O)=O)C(NC(=O)CC(O)CCCCCCCCCCC)C(OC(=O)CC(O)CCCCCCCCCCC)C1O)(O)(O)=O,C8H9NO2,1625.9039,10.1237,69,1356.88,4,453.91803,1,"6-(1,2-dihydroxyethyl)-4,5-dihydroxy-2-[[6-[[3-hydroxy-5-(3-hydroxytetradecanoylamino)-4-(3-hydroxytetradecanoyloxy)-6-phosphonooxy-tetrahydropyran-2-yl]methoxy]-5-(3-hydroxytetradecanoylamino)-4-(3-h ydroxytetradecanoyloxy)-3-phosphonooxy-tetrahydropyran-2-yl]methoxy]tetrahydropyran-2-carboxylic acid"
"InChI=1S/C96H176N2O38P2/c1-6-11-16-21-26-31-36-41-46-51-66(101)56-76(107)97-81-89(130-79(110)57-67(102)52-47-42-37-32-27-22-17-12-7-2)85(114)74(128-92(81)136-138(122,123)124)64-125-91-82(98-77(108)59- 69(54-49-44-39-34-29-24-19-14-9-4)127-78(109)55-50-45-4",JVUUYJGQIVCMIU-UHFFFAOYSA-N,P(OC1C(OC(=O)CC(O)CCCCCCCCCCC)C(NC(=O)CC(OC(=O)CCCCCCCCCCC)CCCCCCCCCCC)C(OC1COC1(OC(C(O)CO)C(O)C(OC2(OC(C(O)CO)C(O)C(O)C2)C(O)=O)C1)C(O)=O)OCC1OC(OP(O)(O)=O)C(NC(=O)CC(O)CCCCCCCCCCC)C(OC(=O)CC(O)CCCCCCCCCCC)C1O)(O)(O)=O,C9H10O3,2028.3879,13.7997,86,1679.38,4,556.05573,1,"2-[2-carboxy-6-(1,2-dihydroxyethyl)-2-[[5-(3-dodecanoyloxytetradecanoylamino)-6-[[3-hydroxy-5-(3-hydroxytetradecanoylamino)-4-(3-hydroxytetradecanoyloxy)-6-phosphonooxy-tetrahydropyran-2-yl]methoxy]-4 -(3-hydroxytetradecanoyloxy)-3-phosphonooxy-tetrahydropyran-2-yl]methoxy]-5-hydroxy-tetrahydropyran-4-yl]oxy-6-(1,2-dihydroxyethyl)-4,5-dihydroxy-tetrahydropyran-2-carboxylic acid"
"InChI=1S/C110H203N2O42P3/c1-7-13-19-25-31-37-38-44-50-56-62-68-92(123)144-82(66-60-54-48-42-35-29-23-17-11-5)72-94(125)148-104-96(112-90(121)71-81(65-59-53-47-41-34-28-22-16-10-4)143-91(122)67-61-55-4 9-43-36-30-24-18-12-6)105(146-88(102(104)152-155(133,13",FEIRMQZKCHCJCZ-UHFFFAOYSA-N,P(OC1OC(COC2OC(COC3(OC(C(O)CO)C(O)C(OC4(OC(C(O)CO)C(O)C(O)C4)C(O)=O)C3)C(O)=O)C(OP(O)(O)=O)C(OC(=O)CC(OC(=O)CCCCCCCCCCCCC)CCCCCCCCCCC)C2NC(=O)CC(OC(=O)CCCCCCCCCCC)CCCCCCCCCCC)C(O)C(OC(=O)CC(O)CCCCCCCCCCC)C1NC(=O)CC(O)CCCCCCCCCCC)(OP(O)(O)=O)(O)=O,C9H8O2,2318.728,18.8437,102,1865.88,4,711.9162,0,"2-[2-carboxy-6-(1,2-dihydroxyethyl)-2-[[5-(3-dodecanoyloxytetradecanoylamino)-6-[[3-hydroxy-6-[hydroxy(phosphonooxy)phosphoryl]oxy-5-(3-hydroxytetradecanoylamino)-4-(3-hydroxytetradecanoyloxy)tetrahyd ropyran-2-yl]methoxy]-3-phosphonooxy-4-(3-tetradecanoyloxytetradecanoyloxy)tetrahydropyran-2-yl]methoxy]-5-hydroxy-tetrahydropyran-4-yl]oxy-6-(1,2-dihydroxyethyl)-4,5-dihydroxy-tetrahydropyran-2-carbo xylic acid"
"InChI=1S/C84H154N2O37P2/c1-5-9-13-17-21-25-29-33-37-41-55(89)45-65(97)85-69-77(117-67(99)47-57(91)43-39-35-31-27-23-19-15-11-7-3)72(102)63(115-80(69)123-125(110,111)112)53-113-79-70(86-66(98)46-56(90) 42-38-34-30-26-22-18-14-10-6-2)78(118-68(100)48-58(92)4",XYRZRSGHCARAIB-UHFFFAOYSA-N,P(OC1C(OC(=O)CC(O)CCCCCCCCCCC)C(NC(=O)CC(O)CCCCCCCCCCC)C(OC1COC1(OC(C(O)CO)C(OC2(OC(C(O)CO)C(O)C(O)C2)C(O)=O)C(O)C1)C(O)=O)OCC1OC(OP(O)(O)=O)C(NC(=O)CC(O)CCCCCCCCCCC)C(OC(=O)CC(O)CCCCCCCCCCC)C1O)(O)(O)=O,C10H11ClO3,1846.0809,8.7577,74,1487.63,3,615.22522,1,"2-[6-carboxy-2-(1,2-dihydroxyethyl)-4-hydroxy-6-[[6-[[3-hydroxy-5-(3-hydroxytetradecanoylamino)-4-(3-hydroxytetradecanoyloxy)-6-phosphonooxy-tetrahydropyran-2-yl]methoxy]-5-(3-hydroxytetradecanoylamin o)-4-(3-hydroxytetradecanoyloxy)-3-phosphonooxy-tetrahydropyran-2-yl]methoxy]tetrahydropyran-3-yl]oxy-6-(1,2-dihydroxyethyl)-4,5-dihydroxy-tetrahydropyran-2-carboxylic acid"