InChI,Key,smiles,Formula,Weight,logP(o/w),b_rotN,vol,lip_violation,ASA_P,Natural,ChemicalName
"InChI=1S/C32H44O8/c1-17(33)40-27(2,3)13-12-23(36)32(9,39)25-21(35)15-29(6)22-11-10-18-19(14-20(34)26(38)28(18,4)5)31(22,8)24(37)16-30(25,29)7/h10,12-14,19,21-22,25,34-35,39H,11,15-16H2,1-9H3",NDYMQXYDSVBNLL-UHFFFAOYSA-N,OC1CC2(C3CC=C4C(C=C(O)C(=O)C4(C)C)C3(C)C(=O)CC2(C)C1C(O)(C(=O)C=CC(OC(=O)C)(C)C)C)C,C8H14ClN5,556.69598,3.4670,6,438.88,1,208.80519,1,"[(<I>E</I>)-5-(2,16-dihydroxy-4,4,9,13,14-pentamethyl-3,11-dioxo-8,10,12,15,16,17-hexahydro-7<I>H</I>-cyclopenta[a]phenanthren-17-yl)-5-hydroxy-1,1-dimethyl-4-oxo-hex-2-enyl] acetate"
"InChI=1S/C30H42O7/c1-25(2,36)12-11-21(33)30(8,37)23-19(32)14-27(5)20-10-9-16-17(13-18(31)24(35)26(16,3)4)29(20,7)22(34)15-28(23,27)6/h9,11-13,17,19-20,23,31-32,36-37H,10,14-15H2,1-8H3",NISPVUDLMHQFRQ-UHFFFAOYSA-N,OC1CC2(C3CC=C4C(C=C(O)C(=O)C4(C)C)C3(C)C(=O)CC2(C)C1C(O)(C(=O)C=CC(O)(C)C)C)C,C8H8O3,514.659,2.8780,4,404.25,1,206.43288,0,"17-[(<I>E</I>)-1,5-dihydroxy-1,5-dimethyl-2-oxo-hex-3-enyl]-2,16-dihydroxy-4,4,9,13,14-pentamethyl-8,10,12,15,16,17-hexahydro-7<I>H</I>-cyclopenta[a]phenanthrene-3,11-dione"
"InChI=1S/C21H20O6/c1-26-20-11-14(5-9-18(20)24)3-7-16(22)13-17(23)8-4-15-6-10-19(25)21(12-15)27-2/h3-12,24-25H,13H2,1-2H3",VFLDPWHFBUODDF-UHFFFAOYSA-N,O(C)c1cc(ccc1O)C=CC(=O)CC(=O)C=Cc1cc(OC)c(O)cc1,C8H9NO2,368.38498,3.7180,8,350.63,0,200.6812,1,"(1<I>E</I>,6<I>E</I>)-1,7-bis(4-hydroxy-3-methoxy-phenyl)hepta-1,6-diene-3,5-dione"
"InChI=1S/C14H17NO3/c16-14(15-6-2-1-3-7-15)11-4-5-12-13(10-11)18-9-8-17-12/h4-5,10H,1-3,6-9H2",LJUNPHMOGNFFOS-UHFFFAOYSA-N,O1CCOc2c1cc(cc2)C(=O)N1CCCCC1,C9H10O3,247.29399,1.9710,2,228.00,0,94.036438,1,"2,3-dihydro-1,4-benzodioxin-6-yl(1-piperidyl)methanone"
"InChI=1S/C62H90N13O14P.CN.Co/c1-29-20-39-40(21-30(29)2)75(28-70-39)57-52(84)53(41(27-76)87-57)89-90(85,86)88-31(3)26-69-49(83)18-19-59(8)37(22-46(66)80)56-62(11)61(10,25-48(68)82)36(14-17-45(65)79)51( 74-62)33(5)55-60(9,24-47(67)81)34(12-15-43(63)77)38(71-",AGVAZMGAQJOSFJ-UHFFFAOYSA-M,[Co+2].P(OC1C(O)C(OC1CO)n1c2cc(C)c(cc2nc1)C)(OC(CNC(=O)CCC1(C=2[N-]C(C3(N=C(C(CCC(=O)N)C3(CC(=O)N)C)C(=C3N=C(C=C4N=C(C(CCC(=O)N)C4(C)C)C=2C)C(CCC(=O)N)C3(CC(=O)N)C)C)C)C1CC(=O)N)C)C)(O)=O.N#[C-],C9H8O2,1356.396,-3.5810,27,1025.88,3,624.30768,0,"cobaltous;[5-(5,6-dimethylbenzimidazol-1-yl)-4-hydroxy-2-(hydroxymethyl)tetrahydrofuran-3-yl] [1-methyl-2-[3-[(4<I>Z</I>,9<I>Z</I>,14<I>Z</I>)-2,13,18-tris(2-amino-2-oxo-ethyl)-7,12,17-tris(3-amino-3- oxo-propyl)-3,5,8,8,13,15,18,19-octamethyl-2,7,12,17-tetrahydro-1<I>H</I>-corrin-21-id-3-yl]propanoylamino]ethyl] hydrogen phosphate;cyanide"
"InChI=1S/C62H90N13O14P/c1-29-20-39-40(21-30(29)2)75(28-70-39)57-52(84)53(41(27-76)87-57)89-90(85,86)88-31(3)26-69-49(83)18-19-59(8)37(22-46(66)80)56-62(11)61(10,25-48(68)82)36(14-17-45(65)79)51(74-62) 33(5)55-60(9,24-47(67)81)34(12-15-43(63)77)38(71-55)23-",NEZOEVMZBDYNHZ-UHFFFAOYSA-N,P(OC1C(O)C(OC1CO)n1c2cc(C)c(cc2nc1)C)(OC(CNC(=O)CCC1(C2=NC(C3(N=C(C(CCC(=O)N)C3(CC(=O)N)C)C(=C3NC(=CC4=NC(C(CCC(=O)N)C4(C)C)=C2C)C(CCC(=O)N)C3(CC(=O)N)C)C)C)C1CC(=O)N)C)C)(O)=O,C10H11ClO3,1272.453,-3.3320,27,981.13,3,677.34949,1,"[5-(5,6-dimethylbenzimidazol-1-yl)-4-hydroxy-2-(hydroxymethyl)tetrahydrofuran-3-yl] [1-methyl-2-[3-[(5<I>Z</I>,10<I>Z</I>,14<I>Z</I>)-2,13,18-tris(2-amino-2-oxo-ethyl)-7,12,17-tris(3-amino-3-oxo-propy l)-3,5,8,8,13,15,18,19-octamethyl-1,2,7,12,17,23-hexahydrocorrin-3-yl]propanoylamino]ethyl] hydrogen phosphate"
"InChI=1S/C17H24O3/c1-12-9-14(11-17(2,3)10-12)20-16(19)15(18)13-7-5-4-6-8-13/h4-8,12,14-15,18H,9-11H2,1-3H3",WZHCOOQXZCIUNC-UHFFFAOYSA-N,O(C(=O)C(O)c1ccccc1)C1CC(CC(C1)C)(C)C,C10H11N3O3S,276.37601,4.3680,4,261.88,0,66.9086,0,"(3,3,5-trimethylcyclohexyl) 2-hydroxy-2-phenyl-acetate"
"InChI=1S/C23H27N5O4/c1-30-19-12-14-15(13-20(19)31-2)25-23(26-21(14)24)28-10-9-27(16-6-3-4-7-17(16)28)22(29)18-8-5-11-32-18/h5,8,11-13,16-17H,3-4,6-7,9-10H2,1-2H3,(H2,24,25,26)",XBRXTUGRUXGBPX-UHFFFAOYSA-N,o1cccc1C(=O)N1C2C(N(CC1)c1nc(N)c3cc(OC)c(OC)cc3n1)CCCC2,C10H12O3,437.5,1.8457,5,400.75,0,197.1405,1,"[4-(4-amino-6,7-dimethoxy-quinazolin-2-yl)-2,3,4<I>a</I>,5,6,7,8,8<I>a</I>-octahydroquinoxalin-1-yl]-(2-furyl)methanone"
"InChI=1S/C20H21N/c1-21(2)15-7-12-20-18-10-5-3-8-16(18)13-14-17-9-4-6-11-19(17)20/h3-6,8-14H,7,15H2,1-2H3",JURKNVYFZMSNLP-UHFFFAOYSA-N,N(CCC=C1c2c(C=Cc3c1cccc3)cccc2)(C)C,C12H7Cl3O2,275.39499,5.0250,3,291.25,0,56.136005,1,"3-(dibenzo[1,2-<I>d</I>:2',1'-<I>f</I>][7]annulen-11-ylidene)-<I>N</I>,<I>N</I>-dimethyl-propan-1-amine"
"InChI=1S/C5H9N3O2/c6-5-7-1-2-8(5)3-4(9)10/h1-3H2,(H2,6,7)(H,9,10)",AMHZIUVRYRVYBA-UHFFFAOYSA-N,OC(=O)CN1CCNC1=N,C13H10N2O3S,143.146,-0.6520,2,121.00,0,211.60826,0,2-(2-iminoimidazolidin-1-yl)acetic acid
"InChI=1S/C12H25N/c13-12-10-8-6-4-2-1-3-5-7-9-11-12/h12H,1-11,13H2",HBGGBCVEFUPUNY-UHFFFAOYSA-N,NC1CCCCCCCCCCC1,C13H18O2,183.33899,4.0050,0,177.00,0,52.545971,1,cyclododecanamine
"InChI=1S/C23H24O4/c1-16(24)26-21-12-8-19(9-13-21)23(18-6-4-3-5-7-18)20-10-14-22(15-11-20)27-17(2)25/h8-15H,3-7H2,1-2H3",GVOUFPWUYJWQSK-UHFFFAOYSA-N,O(C(=O)C)c1ccc(cc1)C(c1ccc(OC(=O)C)cc1)=C1CCCCC1,C13H9Cl3N2O,364.44098,5.4920,6,351.50,1,90.511238,0,[4-[(4-acetoxyphenyl)-cyclohexylidene-methyl]phenyl] acetate
"InChI=1S/C7H15N/c8-7-5-3-1-2-4-6-7/h7H,1-6,8H2",VXVVUHQULXCUPF-UHFFFAOYSA-N,NC1CCCCCC1,C14H12O3,113.20399,1.7950,0,113.50,0,47.628334,1,cycloheptanamine
"InChI=1S/C15H23NO4/c1-8-3-9(2)15(20)11(4-8)12(17)5-10-6-13(18)16-14(19)7-10/h8-12,17H,3-7H2,1-2H3,(H,16,18,19)",YPHMISFOHDHNIV-UHFFFAOYSA-N,O=C1C(CC(CC1C)C)C(O)CC1CC(=O)NC(=O)C1,C15H12N2O,281.35199,0.5380,3,249.75,0,170.76247,1,"4-[2-(3,5-dimethyl-2-oxo-cyclohexyl)-2-hydroxy-ethyl]piperidine-2,6-dione"
"InChI=1S/C6H11NO2/c7-6(5(8)9)3-1-2-4-6/h1-4,7H2,(H,8,9)",NILQLFBWTXNUOE-UHFFFAOYSA-N,OC(=O)C1(N)CCCC1,C4H4KNO4S,129.159,-1.9167,1,107.38,0,130.8504,0,1-aminocyclopentanecarboxylic acid
"InChI=1S/C8H14N2O2/c1-5(2)3-6-8(12)9-4-7(11)10-6/h5-6H,3-4H2,1-2H3,(H,9,12)(H,10,11)",VQFHWKRNHGHZTK-UHFFFAOYSA-N,O=C1NCC(=O)NC1CC(C)C,C7H6O3,170.21199,0.0680,2,154.50,0,148.13733,1,"3-isobutylpiperazine-2,5-dione"
"InChI=1S/C8H17N/c9-8-6-4-2-1-3-5-7-8/h8H,1-7,9H2",HSOHBWMXECKEKV-UHFFFAOYSA-N,NC1CCCCCCC1,C7H8N4O2,127.231,2.2370,0,130.25,0,58.064659,0,cyclooctanamine
"InChI=1S/C13H18ClN3O4S2/c14-9-6-10-12(7-11(9)22(15,18)19)23(20,21)17-13(16-10)5-8-3-1-2-4-8/h6-8,13,16-17H,1-5H2,(H2,15,18,19)",BKYKPTRYDKTTJY-UHFFFAOYSA-N,Clc1cc2NC(NS(=O)(=O)c2cc1S(=O)(=O)N)CC1CCCC1,C8H10N4O2,379.88901,1.7290,3,267.38,0,212.38728,1,"6-chloro-3-(cyclopentylmethyl)-1,1-dioxo-3,4-dihydro-2<I>H</I>-1&lambda;<sup>6</sup>,2,4-benzothiadiazine-7-sulfonamide"
"InChI=1S/C17H25NO3/c1-18(2)12-13-21-16(19)15(14-8-4-3-5-9-14)17(20)10-6-7-11-17/h3-5,8-9,15,20H,6-7,10-13H2,1-2H3",SKYSRIRYMSLOIN-UHFFFAOYSA-N,OC1(CCCC1)C(C(OCCN(C)C)=O)c1ccccc1,C8H14ClN5,291.39099,2.5780,7,276.00,0,104.04217,1,2-(dimethylamino)ethyl 2-(1-hydroxycyclopentyl)-2-phenyl-acetate
"InChI=1S/C5H11N/c6-5-3-1-2-4-5/h5H,1-4,6H2",NISGSNTVMOOSJQ-UHFFFAOYSA-N,NC1CCCC1,C8H8O3,85.150002,0.9110,0,84.75,0,56.9482,0,cyclopentanamine
"InChI=1S/C7H15Cl2N2O2P/c8-2-5-11(6-3-9)14(12)10-4-1-7-13-14/h1-7H2,(H,10,12)",CMSMOCZEIVJLDB-UHFFFAOYSA-N,ClCCN(P1(OCCCN1)=O)CCCl,C8H9NO2,261.08899,-0.0460,5,183.75,0,222.81386,1,"<I>N</I>,<I>N</I>-bis(2-chloroethyl)-2-oxo-1,3,2&lambda;<sup>5</sup>-oxazaphosphinan-2-amine"
InChI=1S/C62H111N11O12/c1-25-27-28-40(15)52(75)51-56(79)65-43(26-2)58(81)67(18)33-48(74)68(19)44(29-34(3)4)55(78)66-49(38(11)12)61(84)69(20)45(30-35(5)6)54(77)63-41(16)53(76)64-42(17)57(80)70(21)46(31 -36(7)8)59(82)71(22)47(32-37(9)10)60(83)72(23)50(39(13),PMATZTZNYRCHOR-UHFFFAOYSA-N,O=C1N(C)C(C(O)C(C\C=C\C)C)C(=O)NC(CC)C(=O)N(CC(=O)N(C)C(CC(C)C)C(=O)NC(C(C)C)C(=O)N(C)C(CC(C)C)C(=O)NC(C)C(=O)NC(C)C(=O)N(C)C(CC(C)C)C(=O)N(C)C(CC(C)C)C(=O)N(C)C1C(C)C)C,C9H8O2,1202.635,5.2920,15,1026.88,2,252.86497,1,"30-ethyl-33-[(<I>E</I>)-1-hydroxy-2-methyl-hex-4-enyl]-6,9,18,24-tetraisobutyl-3,21-diisopropyl-1,4,7,10,12,15,19,25,28-nonamethyl-1,4,7,10,13,16,19,22,25,28,31-undecazacyclotritriacontane-2,5,8,11,14 ,17,20,23,26,29,32-undecone"
"InChI=1S/C14H16ClN3O4S2/c15-10-5-11-13(6-12(10)23(16,19)20)24(21,22)18-14(17-11)9-4-7-1-2-8(9)3-7/h1-2,5-9,14,17-18H,3-4H2,(H2,16,19,20)",BOCUKUHCLICSIY-UHFFFAOYSA-N,Clc1cc2NC(NS(=O)(=O)c2cc1S(=O)(=O)N)C1C2CC(C1)C=C2,C10H11ClO3,389.884,0.5850,2,268.25,0,249.19208,1,"3-(5-bicyclo[2.2.1]hept-2-enyl)-6-chloro-1,1-dioxo-3,4-dihydro-2<I>H</I>-1&lambda;<sup>6</sup>,2,4-benzothiadiazine-7-sulfonamide"
"InChI=1S/C19H29NO/c21-19(18-11-5-6-12-18,17-9-3-1-4-10-17)13-16-20-14-7-2-8-15-20/h1,3-4,9-10,18,21H,2,5-8,11-16H2",SWRUZBWLEWHWRI-UHFFFAOYSA-N,OC(CCN1CCCCC1)(C1CCCC1)c1ccccc1,C10H11N3O3S,287.44699,4.5670,5,278.75,0,37.233257,0,1-cyclopentyl-1-phenyl-3-(1-piperidyl)propan-1-ol
"InChI=1S/C22H19Cl2NO3/c1-22(2)17(12-19(23)24)20(22)21(26)28-18(13-25)14-7-6-10-16(11-14)27-15-8-4-3-5-9-15/h3-12,17-18,20H,1-2H3",KAATUXNTWXVJKI-UHFFFAOYSA-N,ClC(Cl)=CC1C(C)(C)C1C(OC(C#N)c1cc(Oc2ccccc2)ccc1)=O,C10H12O3,416.30399,5.7044,8,376.25,1,106.26847,1,"[cyano-(3-phenoxyphenyl)methyl] 3-(2,2-dichlorovinyl)-2,2-dimethyl-cyclopropanecarboxylate"
"InChI=1S/C21H21N/c1-22-14-12-18(13-15-22)21-19-8-4-2-6-16(19)10-11-17-7-3-5-9-20(17)21/h2-11H,12-15H2,1H3",JJCFRYNCJDLXIK-UHFFFAOYSA-N,N1(CCC(CC1)=C1c2c(C=Cc3c1cccc3)cccc2)C,C12H7Cl3O2,287.40601,4.8090,0,292.38,0,45.105743,0,"4-(dibenzo[1,2-<I>d</I>:2',1'-<I>f</I>][7]annulen-11-ylidene)-1-methyl-piperidine"
InChI=1S/C4H12N2S2/c5-1-3-7-8-4-2-6/h1-6H2,APQPRKLAWCIJEK-UHFFFAOYSA-N,S(SCCN)CCN,C13H18O2,152.286,-0.0360,5,117.88,0,229.23282,1,2-(2-aminoethyldisulfanyl)ethanamine
"InChI=1S/C2H8NO3PS/c3-1-2-8-7(4,5)6/h1-3H2,(H2,4,5,6)",RZPNFYXFSHGGBE-UHFFFAOYSA-N,S(P(O)(O)=O)CCN,C13H9Cl3N2O,157.13,-1.3970,3,95.13,0,251.38031,0,2-aminoethylsulfanylphosphonic acid
"InChI=1S/C17H26N3O15P/c18-9-1-2-20(16(29)19-9)14-12(26)11(25)8(33-14)5-32-36(30,31)35-17(15(27)28)3-6(22)10(24)13(34-17)7(23)4-21/h1-2,6-8,10-14,21-26H,3-5H2,(H,27,28)(H,30,31)(H2,18,19,29)",YWWJKULNWGRYAS-UHFFFAOYSA-N,P(OC1(OC(C(O)CO)C(O)C(O)C1)C(O)=O)(OCC1OC(N2C=CC(=NC2=O)N)C(O)C1O)(O)=O,C14H12O3,543.375,-4.9510,9,374.75,3,467.34625,1,"2-[[5-(4-amino-2-oxo-pyrimidin-1-yl)-3,4-dihydroxy-tetrahydrofuran-2-yl]methoxy-hydroxy-phosphoryl]oxy-6-(1,2-dihydroxyethyl)-4,5-dihydroxy-tetrahydropyran-2-carboxylic acid"
"InChI=1S/C6H14NO5P/c7-5(6(8)9)3-1-2-4-13(10,11)12/h5H,1-4,7H2,(H,8,9)(H2,10,11,12)",QIOXWRQXHFVNLV-UHFFFAOYSA-N,P(O)(O)(=O)CCCCC(N)C(O)=O,C9H8O2,211.15399,-3.7957,6,152.88,0,264.3031,1,2-amino-6-phosphono-hexanoic acid
"InChI=1S/C14H17BNO4/c1-10(17)16-14(15(18,19)20)9-12-7-4-6-11-5-2-3-8-13(11)12/h2-8,14,18-20H,9H2,1H3,(H,16,17)/q-1",XDFLCBUAVBYWFW-UHFFFAOYSA-N,O[B-](O)(O)C(NC(=O)C)Cc1c2c(ccc1)cccc2,C10H11ClO3,274.104,1.4900,5,243.75,0,155.17738,0,[1-acetamido-2-(1-naphthyl)ethyl]-trihydroxy-boranuide
"InChI=1S/C22H16ClN3O2/c23-16-7-5-15(6-8-16)13-26-14-19(18-3-1-2-4-20(18)26)21(27)22(28)25-17-9-11-24-12-10-17/h1-12,14H,13H2,(H,24,25,28)",SOLIIYNRSAWTSQ-UHFFFAOYSA-N,Clc1ccc(cc1)Cn1cc(c2c1cccc2)C(=O)C(=O)Nc1ccncc1,C10H11N3O3S,389.84198,4.3180,6,365.38,0,110.15311,1,2-[1-[(4-chlorophenyl)methyl]indol-3-yl]-2-oxo-<I>N</I>-(4-pyridyl)acetamide
"InChI=1S/C10H12N2O4/c13-9(14)8(11-10(15)12-16)6-7-4-2-1-3-5-7/h1-5,8,16H,6H2,(H,13,14)(H2,11,12,15)",IOFPEOPOAMOMBE-UHFFFAOYSA-N,OC(=O)C(NC(=O)NO)Cc1ccccc1,C10H12O3,224.21599,0.3880,6,190.75,0,204.27858,1,2-(hydroxycarbamoylamino)-3-phenyl-propanoic acid
"InChI=1S/C11H16N3O7P/c1-6-10(15)8(3-13-9-5-20-14-11(9)16)7(2-12-6)4-21-22(17,18)19/h2,9,13,15H,3-5H2,1H3,(H,14,16)(H2,17,18,19)",NNRZSZJOQKAGTO-UHFFFAOYSA-N,P(OCc1cnc(C)c(O)c1CNC1CONC1=O)(O)(O)=O,C12H7Cl3O2,333.237,-1.9720,6,248.88,0,329.15137,0,[5-hydroxy-6-methyl-4-[[(3-oxoisoxazolidin-4-yl)amino]methyl]-3-pyridyl]methyl dihydrogen phosphate
"InChI=1S/C15H23N5O4/c16-11(8-9-3-5-10(21)6-4-9)13(22)20-12(14(23)24)2-1-7-19-15(17)18/h3-6,11-12,21H,1-2,7-8,16H2,(H,20,22)(H,23,24)(H4,17,18,19)",JXNRXNCCROJZFB-UHFFFAOYSA-N,Oc1ccc(cc1)CC(N)C(=O)NC(CCCN=C(N)N)C(O)=O,C13H10N2O3S,337.38,-0.3240,10,295.00,1,317.09521,1,2-[[2-amino-3-(4-hydroxyphenyl)propanoyl]amino]-5-guanidino-pentanoic acid
"InChI=1S/C9H11N5O4/c10-7-5-8(12-2-11-7)14(3-13-5)1-4(15)6(16)9(17)18/h2-4,6,15-16H,1H2,(H,17,18)(H2,10,11,12)",LIEMBEWXEZJEEZ-UHFFFAOYSA-N,OC(C(O)C(O)=O)Cn1c2ncnc(N)c2nc1,C13H18O2,253.218,-2.0049,4,205.00,0,321.73721,0,"4-(6-aminopurin-9-yl)-2,3-dihydroxy-butanoic acid"
"InChI=1S/C23H39NO2/c1-3-4-5-6-7-8-9-10-11-12-16-19-22(25)24-20(2)23(26)21-17-14-13-15-18-21/h13-15,17-18,20,23,26H,3-12,16,19H2,1-2H3,(H,24,25)",YLAZEWZHIRBZDA-UHFFFAOYSA-N,OC(C(NC(=O)CCCCCCCCCCCCC)C)c1ccccc1,C13H9Cl3N2O,361.56998,6.5570,16,369.63,1,72.880959,1,<I>N</I>-(2-hydroxy-1-methyl-2-phenyl-ethyl)tetradecanamide
"InChI=1S/C6H12N2O6S/c7-4(6(10)11)1-2-5(9)8-3-15(12,13)14/h4H,1-3,7H2,(H,8,9)(H,10,11)(H,12,13,14)",HCMBCMVOCRJSME-UHFFFAOYSA-N,S(O)(=O)(=O)CNC(=O)CCC(N)C(O)=O,C14H12O3,240.23599,-4.7727,7,168.50,0,303.34247,1,2-amino-5-oxo-5-(sulfomethylamino)pentanoic acid
"InChI=1S/C6H14O12P2/c7-1-2(8)4(10)6(18-20(14,15)16)5(3(1)9)17-19(11,12)13/h1-10H,(H2,11,12,13)(H2,14,15,16)",MCKAJXMRULSUKI-UHFFFAOYSA-N,P(OC1C(OP(O)(O)=O)C(O)C(O)C(O)C1O)(O)(O)=O,C15H12N2O,340.11398,-5.5223,4,186.25,2,389.77798,0,"(2,3,4,5-tetrahydroxy-6-phosphonooxy-cyclohexyl) dihydrogen phosphate"
"InChI=1S/C20H30O4/c1-2-3-6-10-17(21)13-14-18-16(12-15-19(18)22)9-7-4-5-8-11-20(23)24/h4,7,12,14-17,21H,2-3,5-6,8-11,13H2,1H3,(H,23,24)",TUXFWOHFPFBNEJ-UHFFFAOYSA-N,O=C1C=CC(CC=CCCCC(O)=O)C1=CCC(O)CCCCC,C4H4KNO4S,334.45599,3.2950,12,330.13,0,179.75407,1,(<I>E</I>)-7-[(5<I>Z</I>)-5-(3-hydroxyoctylidene)-4-oxo-cyclopent-2-en-1-yl]hept-5-enoic acid
"InChI=1S/C49H54N6O2/c1-56-38-8-12-44-40(30-38)48-42-32-54(24-18-36(42)6-10-46(48)50-44)28-26-52-20-14-34(15-21-52)4-3-5-35-16-22-53(23-17-35)27-29-55-25-19-37-7-11-47-49(43(37)33-55)41-31-39(57-2)9-13 -45(41)51-47/h6-13,18-19,24-25,30-35H,3-5,14-17,20-23,2",OAPSNAJHSNYHAG-UHFFFAOYSA-P,O(C)c1cc2c3c4c(ccc3[nH]c2cc1)cc[n+](c4)CCN1CCC(CC1)CCCC1CCN(CC1)CC[n+]1cc2c3c4cc(OC)ccc4[nH]c3ccc2cc1,C7H6O3,761.02698,11.2420,12,750.50,2,204.90895,0,"10-methoxy-2-[2-[4-[3-[1-[2-(10-methoxy-7<I>H</I>-pyrido[4,3-c]carbazol-2-ium-2-yl)ethyl]-4-piperidyl]propyl]-1-piperidyl]ethyl]-7<I>H</I>-pyrido[4,3-c]carbazol-2-ium"
"InChI=1S/C10H15N2O13P3/c1-6-4-12(10(14)11-9(6)13)8-3-2-7(23-8)5-22-27(18,19)25-28(20,21)24-26(15,16)17/h2-4,7-8H,5H2,1H3,(H,18,19)(H,20,21)(H,11,13,14)(H2,15,16,17)",ODSQODTUNULBHF-UHFFFAOYSA-N,P(OCC1OC(N2C=C(C)C(=O)NC2=O)C=C1)(OP(OP(O)(O)=O)(O)=O)(O)=O,C7H8N4O2,464.15298,-3.6650,8,295.38,1,447.71722,1,"[hydroxy-[[5-(5-methyl-2,4-dioxo-pyrimidin-1-yl)-2,5-dihydrofuran-2-yl]methoxy]phosphoryl] phosphono hydrogen phosphate"
InChI=1S/C10H6Cl4O4/c1-17-9(15)3-5(11)7(13)4(10(16)18-2)8(14)6(3)12/h1-2H3,NPOJQCVWMSKXDN-UHFFFAOYSA-N,Clc1c(C(OC)=O)c(Cl)c(Cl)c(C(OC)=O)c1Cl,C8H8O3,331.966,4.1440,4,237.63,0,122.80693,1,"dimethyl 2,3,5,6-tetrachlorobenzene-1,4-dicarboxylate"
"InChI=1S/C4H6N4O/c5-2-1-3(9)8-4(6)7-2/h1H,(H5,5,6,7,8,9)",SWELIMKTDYHAOY-UHFFFAOYSA-N,Oc1nc(nc(N)c1)N,C8H9NO2,126.119,-0.9080,0,104.75,0,250.15466,0,"2,6-diaminopyrimidin-4-ol"
"InChI=1S/C16H10O5/c1-21-16-11(7-17)12(18)6-10-13(16)15(20)9-5-3-2-4-8(9)14(10)19/h2-7,18H,1H3",IPDMWUNUULAXLU-UHFFFAOYSA-N,O(C)c1c2c(cc(O)c1C=O)C(=O)c1c(cccc1)C2=O,C10H11ClO3,282.25101,2.5700,2,252.50,0,181.06465,0,"3-hydroxy-1-methoxy-9,10-dioxo-anthracene-2-carbaldehyde"
"InChI=1S/C14H8O4/c15-9-5-1-3-7-11(9)14(18)12-8(13(7)17)4-2-6-10(12)16/h1-6,15-16H",QBPFLULOKWLNNW-UHFFFAOYSA-N,Oc1c2c(ccc1)C(=O)c1c(C2=O)c(O)ccc1,C10H12O3,240.21399,2.3440,0,212.38,0,129.27866,0,"1,8-dihydroxyanthracene-9,10-dione"
"InChI=1S/C14H10N4O5/c19-13-8-17(14(20)16-13)15-7-11-5-6-12(23-11)9-1-3-10(4-2-9)18(21)22/h1-7H,8H2,(H,16,19,20)/p-1",OZOMQRBLCMDCEG-UHFFFAOYSA-M,o1c(ccc1C=NN1CC(=O)N=C1[O-])-c1ccc([N+](=O)[O-])cc1,C12H7Cl3O2,313.24899,3.2140,4,273.13,0,254.31767,1,3-[(E)-[5-(4-nitrophenyl)-2-furyl]methyleneamino]-5-oxo-4<I>H</I>-imidazol-2-olate
"InChI=1S/C14H10N4O5/c19-13-8-17(14(20)16-13)15-7-11-5-6-12(23-11)9-1-3-10(4-2-9)18(21)22/h1-7H,8H2,(H,16,19,20)",OZOMQRBLCMDCEG-UHFFFAOYSA-N,o1c(ccc1C=NN1CC(=O)NC1=O)-c1ccc([N+](=O)[O-])cc1,C13H10N2O3S,314.25699,1.8600,4,273.13,0,262.49792,1,"1-[(E)-[5-(4-nitrophenyl)-2-furyl]methyleneamino]imidazolidine-2,4-dione"
"InChI=1S/C16H15N5/c17-15(18)10-3-1-9(2-4-10)13-7-11-5-6-12(16(19)20)8-14(11)21-13/h1-8,21H,(H3,17,18)(H3,19,20)",FWBHETKCLVMNFS-UHFFFAOYSA-N,[nH]1c2cc(ccc2cc1-c1ccc(cc1)C(N)=N)C(N)=N,C13H18O2,277.33099,2.8790,3,267.63,1,252.25621,0,2-(4-carbamimidoylphenyl)-1<I>H</I>-indole-6-carboxamidine
"InChI=1S/C12H12N2O2S/c13-9-1-5-11(6-2-9)17(15,16)12-7-3-10(14)4-8-12/h1-8H,13-14H2",MQJKPEGWNLWLTK-UHFFFAOYSA-N,S(=O)(=O)(c1ccc(N)cc1)c1ccc(N)cc1,C13H9Cl3N2O,248.306,1.4140,2,209.88,0,183.83345,1,4-(4-aminophenyl)sulfonylaniline
"InChI=1S/C23H26F2N2O4/c1-14(26-19(28)12-15-10-17(24)13-18(25)11-15)21(29)27-20(16-8-6-5-7-9-16)22(30)31-23(2,3)4/h5-11,13-14,20H,12H2,1-4H3,(H,26,28)(H,27,29)",DWJXYEABWRJFSP-UHFFFAOYSA-N,Fc1cc(cc(F)c1)CC(=O)NC(C(=O)NC(C(OC(C)(C)C)=O)c1ccccc1)C,C14H12O3,432.46698,4.1870,11,384.13,0,96.06073,0,"tert-butyl 2-[2-[[2-(3,5-difluorophenyl)acetyl]amino]propanoylamino]-2-phenyl-acetate"
"InChI=1S/C17H21N2/c1-4-19-14-6-5-7-17(19)13-10-15-8-11-16(12-9-15)18(2)3/h5-14H,4H2,1-3H3/q+1",VZWMLCVBIUHDKX-UHFFFAOYSA-N,[n+]1(ccccc1\C=C\c1ccc(N(C)C)cc1)CC,C15H12N2O,253.36899,4.3800,4,275.88,0,68.399002,1,"4-[(<I>E</I>)-2-(1-ethylpyridin-1-ium-2-yl)vinyl]-<I>N</I>,<I>N</I>-dimethyl-aniline"
"InChI=1S/C27H29NO10/c1-10-22(30)14(28)7-17(37-10)38-16-9-27(35,11(2)29)8-13-19(16)26(34)21-20(24(13)32)23(31)12-5-4-6-15(36-3)18(12)25(21)33/h4-6,10,14,16-17,22,30,32,34-35H,7-9,28H2,1-3H3",STQGQHZAVUOBTE-UHFFFAOYSA-N,O1C(C)C(O)C(N)CC1OC1CC(O)(Cc2c1c(O)c1c(C(=O)c3c(C1=O)c(OC)ccc3)c2O)C(=O)C,C4H4KNO4S,527.526,1.3270,4,433.50,3,259.17682,1,"9-acetyl-7-(4-amino-5-hydroxy-6-methyl-tetrahydropyran-2-yl)oxy-6,9,11-trihydroxy-4-methoxy-8,10-dihydro-7<I>H</I>-tetracene-5,12-dione"
"InChI=1S/C32H39NO10/c1-14(34)32(40)11-17-21(19(12-32)42-13-30(5)29(3,4)28(33)31(6,39)15(2)43-30)27(38)23-22(25(17)36)24(35)16-9-8-10-18(41-7)20(16)26(23)37/h8-10,15,19,28,36,38-40H,11-13,33H2,1-7H3",YQXGVUYVJQGASW-UHFFFAOYSA-N,O1C(COC2CC(O)(Cc3c2c(O)c2c(C(=O)c4c(C2=O)c(OC)ccc4)c3O)C(=O)C)(C)C(C)(C)C(N)C(O)(C)C1C,C7H6O3,597.66101,2.8210,5,491.13,3,253.56435,0,"9-acetyl-7-[(4-amino-5-hydroxy-2,3,3,5,6-pentamethyl-tetrahydropyran-2-yl)methoxy]-6,9,11-trihydroxy-4-methoxy-8,10-dihydro-7<I>H</I>-tetracene-5,12-dione"
"InChI=1S/C11H11N5O2/c12-11-15-8(10(18)16-11)6-2-4-14-9(17)7-5(6)1-3-13-7/h1,3,13H,2,4H2,(H,14,17)(H3,12,15,16,18)",JYRJOQGKGMHTOO-UHFFFAOYSA-N,O=C1N=C(NC1=C1CCNC(=O)c2[nH]ccc12)N,C7H8N4O2,245.24199,-0.2850,0,210.13,0,297.72729,1,"(4<I>Z</I>)-4-(2-amino-4-oxo-1<I>H</I>-imidazol-5-ylidene)-1,5,6,7-tetrahydropyrrolo[2,3-c]azepin-8-one"
"InChI=1S/C46H82NO7P/c1-6-8-10-12-14-16-18-20-22-23-24-25-26-27-29-31-33-35-37-39-46(48)54-45(44-53-55(49,50)52-42-40-47(3,4)5)43-51-41-38-36-34-32-30-28-21-19-17-15-13-11-9-7-2/h8,10,14,16,20,22,24-25 ,27,29,33,35,45H,6-7,9,11-13,15,17-19,21,23,26,28,30-32",QQQQNYAHSSIZBU-UHFFFAOYSA-N,P(OCC(OC(=O)CCC=CCC=CCC=CCC=CCC=CCC=CCC)COCCCCCCCCCCCCCCCC)(OCC[N+](C)(C)C)(=O)[O-],C8H10N4O2,792.13599,9.7515,40,790.75,2,268.6731,0,"[2-[(4<I>E</I>,7<I>E</I>,10<I>E</I>,13<I>E</I>,16<I>E</I>,19<I>E</I>)-docosa-4,7,10,13,16,19-hexaenoyl]oxy-3-hexadecoxy-propyl] 2-(trimethylammonio)ethyl phosphate"
"InChI=1S/C46H82NO7P/c1-6-8-10-12-14-16-18-20-22-23-24-25-26-27-29-31-33-35-37-39-46(48)54-45(44-53-55(49,50)52-42-40-47(3,4)5)43-51-41-38-36-34-32-30-28-21-19-17-15-13-11-9-7-2/h8,10,14,16,20,22,24-25 ,27,29,33,35,45H,6-7,9,11-13,15,17-19,21,23,26,28,30-32",QQQQNYAHSSIZBU-UHFFFAOYSA-O,P(OCC(OC(=O)CCC=CCC=CCC=CCC=CCC=CCC=CCC)COCCCCCCCCCCCCCCCC)(OCC[N+](C)(C)C)(O)=O,C8H14ClN5,793.14398,9.8015,40,790.75,2,291.36307,1,"2-[[2-[(4<I>E</I>,7<I>E</I>,10<I>E</I>,13<I>E</I>,16<I>E</I>,19<I>E</I>)-docosa-4,7,10,13,16,19-hexaenoyl]oxy-3-hexadecoxy-propoxy]-hydroxy-phosphoryl]oxyethyl-trimethyl-ammonium"