InChI,Key,smiles,Formula,Weight,logP(o/w),b_rotN,vol,lip_violation,ASA_P,Natural,ChemicalName
"InChI=1S/C12H15N5O10P2/c18-8-6(3-25-29(23,24)27-28(20,21)22)26-12(9(8)19)17-5-14-7-10-13-1-2-16(10)4-15-11(7)17/h1-2,4-6,8-9,12,18-19H,3H2,(H,23,24)(H2,20,21,22)",OWCTWNCXGDVJGX-UHFFFAOYSA-N,P(OCC1OC(n2c3N=Cn4c(ncc4)-c3nc2)C(O)C1O)(OP(O)(O)=O)(O)=O,C8H14ClN5,451.22501,-3.1259,6,310.88,1,395.58041,1,"(3,4-dihydroxy-5-imidazo[2,1-f]purin-3-yl-tetrahydrofuran-2-yl)methyl phosphono hydrogen phosphate"
"InChI=1S/C6H13NO4/c8-2-4(10)5-6(11)3(9)1-7-5/h3-11H,1-2H2",RVNSAAIWCWTCTJ-UHFFFAOYSA-N,OC1C(NCC1O)C(O)CO,C8H8O3,163.17299,-2.7450,2,125.88,0,202.67313,1,"2-(1,2-dihydroxyethyl)pyrrolidine-3,4-diol"
"InChI=1S/C12H12F3NO2/c1-8(17)16-10(11(18)12(13,14)15)7-9-5-3-2-4-6-9/h2-6,10H,7H2,1H3,(H,16,17)",JTIIYPHJIDENCW-UHFFFAOYSA-N,FC(F)(F)C(=O)C(NC(=O)C)Cc1ccccc1,C8H9NO2,259.22699,1.8578,6,211.25,0,164.52678,0,"<I>N</I>-(1-benzyl-3,3,3-trifluoro-2-oxo-propyl)acetamide"
"InChI=1S/C15H22F4N5O12P3/c16-14(17,37(27,28)29)2-1-3-15(18,19)38(30,31)36-39(32,33)34-4-7-9(25)10(26)13(35-7)24-6-23-8-11(20)21-5-22-12(8)24/h5-7,9-10,13,25-26H,1-4H2,(H,30,31)(H,32,33)(H2,20,21,22)(H 2,27,28,29)",VWQBAZQMKBHYJA-UHFFFAOYSA-N,P(OP(OCC1OC(n2c3ncnc(N)c3nc2)C(O)C1O)(O)=O)(O)(=O)C(F)(F)CCCC(P(O)(O)=O)(F)F,C9H10O3,633.27802,-2.8361,12,397.00,3,567.13922,1,"[5-[[[5-(6-aminopurin-9-yl)-3,4-dihydroxy-tetrahydrofuran-2-yl]methoxy-hydroxy-phosphoryl]oxy-hydroxy-phosphoryl]-1,1,5,5-tetrafluoro-pentyl]phosphonic acid"
"InChI=1S/C12H19N2/c1-14(2)10-8-13(9-11-14)12-6-4-3-5-7-12/h3-7H,8-11H2,1-2H3/q+1",MKGIQRNAGSSHRV-UHFFFAOYSA-N,[N+]1(CCN(CC1)c1ccccc1)(C)C,C9H8O2,191.29799,1.0250,1,194.88,0,56.234005,0,"1,1-dimethyl-4-phenyl-piperazin-1-ium"
InChI=1S/C10H24N2/c11-9-7-5-3-1-2-4-6-8-10-12/h1-12H2,YQLZOAVZWJBZSY-UHFFFAOYSA-N,NCCCCCCCCCCN,C10H11ClO3,172.31599,1.9940,9,178.88,0,139.29715,1,"decane-1,10-diamine"
InChI=1S/C12H8N2/c1-3-9-5-6-10-4-2-8-14-12(10)11(9)13-7-1/h1-8H,DGEZNRSVGBDHLK-UHFFFAOYSA-N,n1c2c(ccc3c2nccc3)ccc1,C10H11N3O3S,180.20999,2.5035,0,186.00,0,43.686844,1,"1,10-phenanthroline"
"InChI=1S/C20H16O3/c21-16-9-14-13-7-6-11-3-1-2-10-4-5-12(18(13)17(10)11)8-15(14)19(22)20(16)23/h1-8,16,19-23H,9H2",GFANZDFKCCJYRF-UHFFFAOYSA-N,OC1C(O)Cc2c(cc3c4c5c(ccc24)cccc5cc3)C1O,C10H12O3,304.345,3.3060,0,277.88,0,122.66272,0,"7,8,9,10-tetrahydrobenzo[a]pyrene-7,8,9-triol"
"InChI=1S/C23H44O5/c1-3-5-7-9-11-13-15-17-22(25)27-20-21(19-24)28-23(26)18-16-14-12-10-8-6-4-2/h21,24H,3-20H2,1-2H3",GNSDEDOVXZDMKM-UHFFFAOYSA-N,O(C(COC(=O)CCCCCCCCC)CO)C(=O)CCCCCCCCC,C12H7Cl3O2,400.59998,6.3967,22,398.88,1,121.59162,1,(2-decanoyloxy-3-hydroxy-propyl) decanoate
"InChI=1S/C2H8N2/c1-3-4-2/h3-4H,1-2H3",DIIIISSCIXVANO-UHFFFAOYSA-N,N(NC)C,C13H10N2O3S,60.099998,-0.3140,1,62.63,0,112.73824,0,"1,2-dimethylhydrazine"
"InChI=1S/C19H36O5/c1-3-5-7-9-11-13-18(21)23-16-17(15-20)24-19(22)14-12-10-8-6-4-2/h17,20H,3-16H2,1-2H3",ZQBULZYTDGUSSK-UHFFFAOYSA-N,O(C(COC(=O)CCCCCCC)CO)C(=O)CCCCCCC,C13H18O2,344.492,4.6287,18,339.13,0,85.999329,1,(3-hydroxy-2-octanoyloxy-propyl) octanoate
"InChI=1S/C39H72O5/c1-3-5-7-9-11-13-15-17-19-21-23-25-27-29-31-33-38(41)43-36-37(35-40)44-39(42)34-32-30-28-26-24-22-20-18-16-14-12-10-8-6-4-2/h17-20,37,40H,3-16,21-36H2,1-2H3",AFSHUZFNMVJNKX-UHFFFAOYSA-N,O(C(COC(=O)CCCCCCCC=CCCCCCCCC)CO)C(=O)CCCCCCCC=CCCCCCCCC,C13H9Cl3N2O,621,11.5727,36,640.88,2,151.4642,1,[3-hydroxy-2-[(<I>E</I>)-octadec-9-enoyl]oxy-propyl] (<I>E</I>)-octadec-9-enoate
"InChI=1S/C35H30O20/c1-35(55-34(51)15-8-22(42)29(47)23(43)9-15)10-24(52-31(48)12-2-16(36)26(44)17(37)3-12)30(54-33(50)14-6-20(40)28(46)21(41)7-14)25(11-35)53-32(49)13-4-18(38)27(45)19(39)5-13/h2-9,24-2 5,30,36-47H,10-11H2,1H3",CQLBMMMBVZXRIO-UHFFFAOYSA-N,O(C(=O)c1cc(O)c(O)c(O)c1)C1C(OC(=O)c2cc(O)c(O)c(O)c2)CC(OC(=O)c2cc(O)c(O)c(O)c2)(CC1OC(=O)c1cc(O)c(O)c(O)c1)C,C14H12O3,770.60498,4.0285,12,602.13,3,618.93835,0,"[5-methyl-2,3,5-tris[(3,4,5-trihydroxybenzoyl)oxy]cyclohexyl] 3,4,5-trihydroxybenzoate"
"InChI=1S/C8H10N4O2/c1-10-4-9-5-6(10)11(2)8(14)12(3)7(5)13/h4H,1-3H3",LPHGQDQBBGAPDZ-UHFFFAOYSA-N,O=C1N(C)C(=O)N(c2n(cnc12)C)C,C15H12N2O,194.194,-0.6040,0,177.00,0,164.34277,1,"1,3,9-trimethylpurine-2,6-dione"
"InChI=1S/C31H42N4O7/c1-21(2)15-26(34-30(39)41-19-23-11-7-5-8-12-23)28(37)32-17-25(36)18-33-29(38)27(16-22(3)4)35-31(40)42-20-24-13-9-6-10-14-24/h5-14,21-22,26-27H,15-20H2,1-4H3,(H,32,37)(H,33,38)(H,34 ,39)(H,35,40)",APGQPPIXNOCMOK-UHFFFAOYSA-N,O(Cc1ccccc1)C(=O)NC(CC(C)C)C(=O)NCC(=O)CNC(=O)C(NC(OCc1ccccc1)=O)CC(C)C,C4H4KNO4S,582.698,4.5050,22,541.25,2,225.87616,0,benzyl <I>N</I>-[1-[[3-[[2-(benzyloxycarbonylamino)-4-methyl-pentanoyl]amino]-2-oxo-propyl]carbamoyl]-3-methyl-butyl]carbamate
"InChI=1S/C15H16N4O2/c1-3-18-13-11(14(20)19(4-2)15(18)21)16-12(17-13)10-8-6-5-7-9-10/h5-9H,3-4H2,1-2H3,(H,16,17)",LVSWNSHUTPWCNF-UHFFFAOYSA-N,O=C1N(CC)C(=O)N(c2nc([nH]c12)-c1ccccc1)CC,C7H6O3,284.319,1.5170,3,268.88,0,111.72379,1,"1,3-diethyl-8-phenyl-7<I>H</I>-purine-2,6-dione"
"InChI=1S/C16H24N4O2/c1-3-9-19-14-12(15(21)20(10-4-2)16(19)22)17-13(18-14)11-7-5-6-8-11/h11H,3-10H2,1-2H3,(H,17,18)",FFBDFADSZUINTG-UHFFFAOYSA-N,O=C1N(CCC)C(=O)N(c2nc([nH]c12)C1CCCC1)CCC,C7H8N4O2,304.39398,2.3180,5,284.75,0,112.20004,1,"8-cyclopentyl-1,3-dipropyl-7<I>H</I>-purine-2,6-dione"
"InChI=1S/C17H20N4O5S/c1-3-9-20-15-13(16(22)21(10-4-2)17(20)23)18-14(19-15)11-5-7-12(8-6-11)27(24,25)26/h5-8H,3-4,9-10H2,1-2H3,(H,18,19)(H,24,25,26)",IWALGNIFYOBRKC-UHFFFAOYSA-N,S(O)(=O)(=O)c1ccc(cc1)-c1[nH]c2c(n1)N(CCC)C(=O)N(CCC)C2=O,C8H10N4O2,392.436,1.6420,6,328.63,0,230.24367,0,"4-(2,6-dioxo-1,3-dipropyl-7<I>H</I>-purin-8-yl)benzenesulfonic acid"
"InChI=1S/C12H18N4S2/c13-11(14)17-6-4-9-2-1-3-10(8-9)5-7-18-12(15)16/h1-3,8H,4-7H2,(H3,13,14)(H3,15,16)",YEUSLPIIQGZHQB-UHFFFAOYSA-N,S(CCc1cc(ccc1)CCSC(N)=N)C(N)=N,C8H14ClN5,282.436,2.9890,8,252.75,1,317.71539,1,2-[2-[3-(2-carbamimidoylsulfanylethyl)phenyl]ethyl]isothiourea
"InChI=1S/C14H24O2/c15-13-9-5-1-2-6-10(9)14(16)12-8-4-3-7-11(12)13/h9-13,15H,1-8,16H2/q+2",CBQWGIKYPHDVRT-UHFFFAOYSA-N,[OH2+][C+]1C2C(CCCC2)C(O)C2C1CCCC2,C8H8O3,224.34399,2.6900,0,202.88,0,88.79921,0,"(10-hydroxy-2,3,4,4<I>a</I>,5,6,7,8,8<I>a</I>,9<I>a</I>,10,10<I>a</I>-dodecahydro-1<I>H</I>-anthracen-9-ylium-9-yl)oxonium"
"InChI=1S/C14H22O2/c15-13-9-5-1-2-6-10(9)14(16)12-8-4-3-7-11(12)13/h9-13,15H,1-8H2/p+1",NAFGJRMQTYNREJ-UHFFFAOYSA-O,[OH+]=C1C2C(CCCC2)C(O)C2C1CCCC2,C8H9NO2,223.336,2.2160,0,202.88,0,67.426628,1,"(10-hydroxy-2,3,4,4<I>a</I>,5,6,7,8,8<I>a</I>,9<I>a</I>,10,10<I>a</I>-dodecahydro-1<I>H</I>-anthracen-9-ylidene)oxonium"
"InChI=1S/C11H15N5O4/c12-11-15-5-3(1-13-7(5)10(20)16-11)6-9(19)8(18)4(2-17)14-6/h1,4,6,8-9,13-14,17-19H,2H2,(H3,12,15,16,20)",KBIDJCVAURJXFG-UHFFFAOYSA-N,OC1C(NC(CO)C1O)c1c2NC(=NC(=O)c2[nH]c1)N,C9H10O3,281.272,-2.1980,2,219.88,1,367.01715,1,"2-amino-7-[3,4-dihydroxy-5-(hydroxymethyl)pyrrolidin-2-yl]-1,5-dihydropyrrolo[3,2-d]pyrimidin-4-one"
"InChI=1S/C5H11NO3/c7-2-3-5(9)4(8)1-6-3/h3-9H,1-2H2",OQEBIHBLFRADNM-UHFFFAOYSA-N,OC1C(NCC1O)CO,C9H8O2,133.147,-2.1720,1,106.13,0,181.57179,0,"2-(hydroxymethyl)pyrrolidine-3,4-diol"
"InChI=1S/C11H14N4O4/c16-2-5-9(17)10(18)7(15-5)4-1-12-8-6(4)13-3-14-11(8)19/h1,3,5,7,9-10,12,15-18H,2H2,(H,13,14,19)",IWKXDMQDITUYRK-UHFFFAOYSA-N,OC1C(NC(CO)C1O)c1c2NC=NC(=O)c2[nH]c1,C10H11ClO3,266.25699,-1.8790,2,213.63,1,299.51559,1,"7-[3,4-dihydroxy-5-(hydroxymethyl)pyrrolidin-2-yl]-1,5-dihydropyrrolo[3,2-d]pyrimidin-4-one"
"InChI=1S/C12H18N4S2/c13-11(14)17-7-5-9-1-2-10(4-3-9)6-8-18-12(15)16/h1-4H,5-8H2,(H3,13,14)(H3,15,16)",FZWGDUUJDZCYJR-UHFFFAOYSA-N,S(CCc1ccc(cc1)CCSC(N)=N)C(N)=N,C10H11N3O3S,282.436,2.9520,8,252.38,1,309.95261,0,2-[2-[4-(2-carbamimidoylsulfanylethyl)phenyl]ethyl]isothiourea
"InChI=1S/C27H38N2O/c1-7-21-28(3,4)25-15-9-23(10-16-25)13-19-27(30)20-14-24-11-17-26(18-12-24)29(5,6)22-8-2/h7-12,15-18H,1-2,13-14,19-22H2,3-6H3/q+2",ZAEXMNKDGJNLTA-UHFFFAOYSA-N,O=C(CCc1ccc([N+](CC=C)(C)C)cc1)CCc1ccc([N+](CC=C)(C)C)cc1,C10H12O3,406.61398,4.2850,12,413.50,1,185.18488,1,allyl-[4-[5-[4-[allyl(dimethyl)ammonio]phenyl]-3-oxo-pentyl]phenyl]-dimethyl-ammonium
"InChI=1S/C29H40N6O7/c1-19(2)15-23(30-28(39)41-17-21-11-7-5-8-12-21)25(36)32-34-27(38)35-33-26(37)24(16-20(3)4)31-29(40)42-18-22-13-9-6-10-14-22/h5-14,19-20,23-24H,15-18H2,1-4H3,(H,30,39)(H,31,40)(H,32 ,36)(H,33,37)(H2,34,35,38)",HGDUWJVGIGLVOH-UHFFFAOYSA-N,O(Cc1ccccc1)C(=O)NC(CC(C)C)C(=O)NNC(=O)NNC(=O)C(NC(OCc1ccccc1)=O)CC(C)C,C12H7Cl3O2,584.67401,4.6430,22,526.63,3,227.31618,1,benzyl <I>N</I>-[1-[[[[2-(benzyloxycarbonylamino)-4-methyl-pentanoyl]amino]carbamoylamino]carbamoyl]-3-methyl-butyl]carbamate
"InChI=1S/C9H7NO2/c11-8-3-1-2-7-6(8)4-5-10-9(7)12/h1-5,11H,(H,10,12)",LFUJIPVWTMGYDG-UHFFFAOYSA-N,Oc1c2c(ccc1)c(O)ncc2,C13H10N2O3S,161.16,1.6810,0,149.13,0,113.58922,0,"isoquinoline-1,5-diol"
"InChI=1S/C22H34O5/c1-8-20(5)12-14(24)16-21(6)11-9-10-19(3,4)17(21)15(25)18(26-13(2)23)22(16,7)27-20/h8,15-18,25H,1,9-12H2,2-7H3",ZKZMDXUDDJYAIB-UHFFFAOYSA-N,O1C2(C(C3(C(C(O)C2OC(=O)C)C(CCC3)(C)C)C)C(=O)CC1(C=C)C)C,C13H18O2,378.509,3.3990,3,308.63,0,108.23409,1,"(6-hydroxy-3,4<I>a</I>,7,7,10<I>a</I>-pentamethyl-1-oxo-3-vinyl-2,5,6,6<I>a</I>,8,9,10,10<I>b</I>-octahydrobenzo[f]chromen-5-yl) acetate"
"InChI=1S/C14H16N2/c1-2-6-13-12(4-1)5-3-7-14(13)16-10-8-15-9-11-16/h1-7,15H,8-11H2",VNICFCQJUVFULD-UHFFFAOYSA-N,N1CCN(CC1)c1c2c(ccc1)cccc2,C13H9Cl3N2O,212.29599,2.2980,1,215.25,0,59.891853,0,1-(1-naphthyl)piperazine
"InChI=1S/C9H10N2O5/c12-3-4-6-7(16-6)8(15-4)11-2-1-5(13)10-9(11)14/h1-2,4,6-8,12H,3H2,(H,10,13,14)",UKUNPMSUMJHIKI-UHFFFAOYSA-N,O1C(C2OC2C1N1C=CC(=O)NC1=O)CO,C14H12O3,226.18799,-1.8940,2,182.13,0,213.43091,1,"1-[4-(hydroxymethyl)-3,6-dioxabicyclo[3.1.0]hexan-2-yl]pyrimidine-2,4-dione"
InChI=1S/C6H14N2/c7-3-6-8-4-1-2-5-8/h1-7H2,WRXNJTBODVGDRY-UHFFFAOYSA-N,NCCN1CCCC1,C15H12N2O,114.192,-0.2170,2,115.25,0,93.579376,1,2-pyrrolidin-1-ylethanamine
"InChI=1S/C21H21ClN2O/c1-4-14(2)24(3)21(25)19-13-15-9-5-6-10-16(15)20(23-19)17-11-7-8-12-18(17)22/h5-14H,4H2,1-3H3",RAVIZVQZGXBOQO-UHFFFAOYSA-N,Clc1ccccc1-c1nc(cc2c1cccc2)C(=O)N(C(CC)C)C,C4H4KNO4S,352.86499,5.3160,5,338.13,1,53.818066,0,1-(2-chlorophenyl)-<I>N</I>-methyl-<I>N</I>-sec-butyl-isoquinoline-3-carboxamide
"InChI=1S/C11H16N2O/c1-14-11-5-3-2-4-10(11)13-8-6-12-7-9-13/h2-5,12H,6-9H2,1H3",VNZLQLYBRIOLFZ-UHFFFAOYSA-N,O(C)c1ccccc1N1CCNCC1,C7H6O3,192.26199,1.0320,2,191.75,0,84.943817,1,1-(2-methoxyphenyl)piperazine
"InChI=1S/C15H12O5/c16-11-4-6-13(17)10(8-11)3-1-9-2-5-14(18)12(7-9)15(19)20/h1-8,16-18H,(H,19,20)",AYPFKZQQTSLEJG-UHFFFAOYSA-N,Oc1ccc(O)cc1C=Cc1cc(C(O)=O)c(O)cc1,C7H8N4O2,272.25598,3.3330,3,246.00,0,202.90607,0,"5-[(<I>E</I>)-2-(2,5-dihydroxyphenyl)vinyl]-2-hydroxy-benzoic acid"
"InChI=1S/C20H14ClN3/c21-15-9-6-10-16(13-15)22-20-18-12-5-4-11-17(18)19(23-24-20)14-7-2-1-3-8-14/h1-13H,(H,22,24)",CEHQLKSLMFIHBF-UHFFFAOYSA-N,Clc1cc(Nc2nnc(c3c2cccc3)-c2ccccc2)ccc1,C8H10N4O2,331.806,6.4670,3,318.25,1,65.269646,1,<I>N</I>-(3-chlorophenyl)-4-phenyl-phthalazin-1-amine
"InChI=1S/C9H13N2O10P/c12-4-1-5(13)11(9(16)10-4)8-7(15)6(14)3(21-8)2-20-22(17,18)19/h3,6-8,14-15H,1-2H2,(H,10,12,16)(H2,17,18,19)",AODYJUNLDJOADV-UHFFFAOYSA-N,P(OCC1OC(N2C(=O)CC(=O)NC2=O)C(O)C1O)(O)(O)=O,C8H14ClN5,340.181,-4.0200,4,232.00,1,372.54443,1,"[3,4-dihydroxy-5-(2,4,6-trioxohexahydropyrimidin-1-yl)tetrahydrofuran-2-yl]methyl dihydrogen phosphate"
"InChI=1S/C18H17BrFN3O3/c1-2-14(24)10-4-5-12(20)16(17(10)25)11-7-13(11)22-18(26)23-15-6-3-9(19)8-21-15/h3-6,8,11,13,25H,2,7H2,1H3,(H2,21,22,23,26)",VRAJWAGCJIXJHQ-UHFFFAOYSA-N,Brc1ccc(nc1)NC(=O)NC1CC1c1c(O)c(ccc1F)C(=O)CC,C8H8O3,422.254,2.9220,7,338.38,0,125.78418,0,1-(5-bromo-2-pyridyl)-3-[2-(6-fluoro-2-hydroxy-3-propanoyl-phenyl)cyclopropyl]urea
"InChI=1S/C14H17N3O2S/c1-11-10-17(8-7-16-11)20(18,19)14-4-2-3-12-9-15-6-5-13(12)14/h2-6,9,11,16H,7-8,10H2,1H3",QGSCXAWTTISKLF-UHFFFAOYSA-N,S(=O)(=O)(N1CC(NCC1)C)c1c2c(ccc1)cncc2,C8H9NO2,291.375,0.3580,2,246.63,0,113.0751,1,5-(3-methylpiperazin-1-yl)sulfonylisoquinoline
"InChI=1S/C17H16N4O2/c22-16-11-5-3-6-12(15(11)13-7-4-10-21(13)16)19-17(23)20-14-8-1-2-9-18-14/h1-3,5-6,8-9,13H,4,7,10H2,(H2,18,19,20,23)",KLVYMYQTRZCMLE-UHFFFAOYSA-N,O=C1N2C(c3c1cccc3NC(=O)Nc1ncccc1)CCC2,C9H10O3,308.341,1.6330,4,286.75,0,127.89307,0,"1-(5-oxo-1,2,3,9<I>b</I>-tetrahydropyrrolo[2,1-a]isoindol-9-yl)-3-(2-pyridyl)urea"
"InChI=1S/C8H10ClN5/c9-5-2-1-3-6(4-5)13-8(12)14-7(10)11/h1-4H,(H6,10,11,12,13,14)",DIHXJZHAIHGSAW-UHFFFAOYSA-N,Clc1cc(NC(NC(N)=N)=N)ccc1,C9H8O2,211.65599,2.0810,4,181.13,1,196.76358,1,1-carbamimidoyl-3-(3-chlorophenyl)guanidine
"InChI=1S/C10H13ClN2/c11-9-2-1-3-10(8-9)13-6-4-12-5-7-13/h1-3,8,12H,4-7H2",VHFVKMTVMIZMIK-UHFFFAOYSA-N,Clc1cc(N2CCNCC2)ccc1,C10H11ClO3,196.681,1.7070,1,181.75,0,60.707245,1,1-(3-chlorophenyl)piperazine
"InChI=1S/C29H33N5O6/c1-20(2)16-25(30-29(38)40-19-22-12-7-4-8-13-22)27(36)32-34-28(37)33-31-26(35)23-14-9-15-24(17-23)39-18-21-10-5-3-6-11-21/h3-15,17,20,25H,16,18-19H2,1-2H3,(H,30,38)(H,31,35)(H,32,36 )(H2,33,34,37)",CEXWCIXCWCFUSI-UHFFFAOYSA-N,O(Cc1ccccc1)c1cc(ccc1)C(=O)NNC(=O)NNC(=O)C(NC(OCc1ccccc1)=O)CC(C)C,C10H11N3O3S,547.612,5.0090,18,511.63,2,231.25662,0,benzyl <I>N</I>-[1-[[[(3-benzyloxybenzoyl)amino]carbamoylamino]carbamoyl]-3-methyl-butyl]carbamate
"InChI=1S/C26H31N3O4S/c1-19(2)15-24(22-12-8-11-21(16-22)20-9-4-3-5-10-20)26(31)28-17-23(30)18-29-34(32,33)25-13-6-7-14-27-25/h3-14,16,19,23-24,29-30H,15,17-18H2,1-2H3,(H,28,31)",YCDHZDINQZLSRR-UHFFFAOYSA-N,S(=O)(=O)(NCC(O)CNC(=O)C(CC(C)C)c1cc(ccc1)-c1ccccc1)c1ncccc1,C10H12O3,481.617,4.2130,12,435.13,0,149.54327,1,<I>N</I>-[2-hydroxy-3-(2-pyridylsulfonylamino)propyl]-4-methyl-2-(3-phenylphenyl)pentanamide
"InChI=1S/C34H53N7O8/c1-5-20(4)30(34(48)39-29(19(2)3)31(36)45)40-33(47)25-8-6-14-41(25)18-26(42)23-16-21-10-12-22(13-11-21)49-15-7-9-28(44)37-24(17-27(35)43)32(46)38-23/h10-13,19-20,23-26,29-30,42H,5-9 ,14-18H2,1-4H3,(H2,35,43)(H2,36,45)(H,37,44)(H,38,46)(H",NTXPPIBCRQQDJL-UHFFFAOYSA-N,O1CCCC(=O)NC(CC(=O)N)C(=O)NC(Cc2ccc1cc2)C(O)CN1CCCC1C(=O)NC(C(CC)C)C(=O)NC(C(C)C)C(=O)N,C12H7Cl3O2,687.83899,-0.0530,15,599.25,3,344.2999,0,"1-[2-[6-(2-amino-2-oxo-ethyl)-5,8-dioxo-12-oxa-4,7-diazabicyclo[11.2.2]heptadeca-1(15),13,16-trien-3-yl]-2-hydroxy-ethyl]-<I>N</I>-[1-[(1-carbamoyl-2-methyl-propyl)carbamoyl]-2-methyl-butyl]pyrrolidin e-2-carboxamide"
"InChI=1S/C10H7F3N2/c11-10(12,13)8-3-1-2-4-9(8)15-6-5-14-7-15/h1-7H",WZBWBNCQUTXYEL-UHFFFAOYSA-N,FC(F)(F)c1ccccc1-n1ccnc1,C13H10N2O3S,212.174,2.6188,2,175.50,0,126.17831,1,1-[2-(trifluoromethyl)phenyl]imidazole
"InChI=1S/C16H21ClN2O2/c1-20-14-6-7-16(15(17)12-14)21-11-5-3-2-4-9-19-10-8-18-13-19/h6-8,10,12-13H,2-5,9,11H2,1H3",UKVVEWLDHJDSNJ-UHFFFAOYSA-N,Clc1cc(OC)ccc1OCCCCCCn1ccnc1,C13H18O2,308.80899,3.9550,9,294.25,0,94.585342,1,1-[6-(2-chloro-4-methoxy-phenoxy)hexyl]imidazole
"InChI=1S/C27H32N4O6S/c1-19(2)16-25(31-26(33)20-12-14-28-15-13-20)27(34)29-17-21(32)18-30-38(35,36)24-10-8-23(9-11-24)37-22-6-4-3-5-7-22/h3-15,19,21,25,30,32H,16-18H2,1-2H3,(H,29,34)(H,31,33)",RNXGMLBGKGGGPZ-UHFFFAOYSA-N,S(=O)(=O)(NCC(O)CNC(=O)C(NC(=O)c1ccncc1)CC(C)C)c1ccc(Oc2ccccc2)cc1,C13H9Cl3N2O,540.64099,2.7240,15,474.25,1,176.95862,0,<I>N</I>-[1-[[2-hydroxy-3-[(4-phenoxyphenyl)sulfonylamino]propyl]carbamoyl]-3-methyl-butyl]pyridine-4-carboxamide
"InChI=1S/C32H42N4O7/c1-21(2)15-25(34-31(40)42-19-23-11-7-5-8-12-23)29(38)33-27-17-36(18-28(27)37)30(39)26(16-22(3)4)35-32(41)43-20-24-13-9-6-10-14-24/h5-14,21-22,25-27H,15-20H2,1-4H3,(H,33,38)(H,34,40 )(H,35,41)",GXENQLUSOCKXDN-UHFFFAOYSA-N,O=C1CN(CC1NC(=O)C(NC(OCc1ccccc1)=O)CC(C)C)C(=O)C(NC(OCc1ccccc1)=O)CC(C)C,C14H12O3,594.70898,4.4710,19,546.00,2,185.89972,1,benzyl <I>N</I>-[1-[3-[[2-(benzyloxycarbonylamino)-4-methyl-pentanoyl]amino]-4-oxo-pyrrolidine-1-carbonyl]-3-methyl-butyl]carbamate
"InChI=1S/C26H52NO8P/c1-6-7-8-9-10-11-12-13-14-15-16-17-18-19-26(29)32-22-25(35-24(2)28)23-34-36(30,31)33-21-20-27(3,4)5/h25H,6-23H2,1-5H3",XPAXRSJGGFVTFM-UHFFFAOYSA-N,P(OCC(OC(=O)C)COC(=O)CCCCCCCCCCCCCCC)(OCC[N+](C)(C)C)(=O)[O-],C15H12N2O,537.67499,4.2935,26,490.50,1,207.17224,0,(2-acetoxy-3-hexadecanoyloxy-propyl) 2-(trimethylammonio)ethyl phosphate
"InChI=1S/C26H52NO8P/c1-6-7-8-9-10-11-12-13-14-15-16-17-18-19-26(29)32-22-25(35-24(2)28)23-34-36(30,31)33-21-20-27(3,4)5/h25H,6-23H2,1-5H3/p+1",XPAXRSJGGFVTFM-UHFFFAOYSA-O,P(OCC(OC(=O)C)COC(=O)CCCCCCCCCCCCCCC)(OCC[N+](C)(C)C)(O)=O,C4H4KNO4S,538.68298,4.3435,26,490.50,1,186.2657,1,2-[(2-acetoxy-3-hexadecanoyloxy-propoxy)-hydroxy-phosphoryl]oxyethyl-trimethyl-ammonium
"InChI=1S/C16H16N4O5S/c1-4-9-20-15(21)12-14(19(3)16(20)22)17-13(18(12)2)10-5-7-11(8-6-10)26(23,24)25/h4-8H,1,9H2,2-3H3,(H,23,24,25)",CDMZOKMMANFJMU-UHFFFAOYSA-N,S(O)(=O)(=O)c1ccc(cc1)-c1nc2N(C)C(=O)N(CC=C)C(=O)c2n1C,C7H6O3,376.39301,0.9490,4,315.88,0,295.54572,1,"4-(1-allyl-3,7-dimethyl-2,6-dioxo-purin-8-yl)benzenesulfonic acid"
"InChI=1S/C7H13NO2/c8-7(6(9)10)4-2-1-3-5-7/h1-5,8H2,(H,9,10)",WOXWUZCRWJWTRT-UHFFFAOYSA-N,OC(=O)C1(N)CCCCC1,C7H8N4O2,143.18599,-1.4747,1,121.00,0,126.81768,0,1-aminocyclohexanecarboxylic acid
"InChI=1S/C6H6N4/c7-10-6-4-2-1-3-5(6)8-9-10/h1-4H,7H2",JCXKHYLLVKZPKE-UHFFFAOYSA-N,n1nn(N)c2c1cccc2,C8H10N4O2,134.142,0.1030,0,122.38,0,131.98212,1,benzotriazol-1-amine
"InChI=1S/C8H13NO4/c9-8(7(12)13)3-1-2-5(4-8)6(10)11/h5H,1-4,9H2,(H,10,11)(H,12,13)",FOJYRYZUTAPBAJ-UHFFFAOYSA-N,OC(=O)C1(N)CC(CCC1)C(O)=O,C8H14ClN5,187.19499,-2.4667,2,146.25,0,191.50571,0,"1-aminocyclohexane-1,3-dicarboxylic acid"
"InChI=1S/C16H13NO3S/c18-21(19,20)15-11-5-7-12-6-4-10-14(16(12)15)17-13-8-2-1-3-9-13/h1-11,17H,(H,18,19,20)",FWEOQOXTVHGIFQ-UHFFFAOYSA-N,S(O)(=O)(=O)c1c2c(cccc2Nc2ccccc2)ccc1,C8H8O3,299.35001,3.4030,3,256.75,0,99.87809,1,8-anilinonaphthalene-1-sulfonic acid
"InChI=1S/C13H15NO3/c15-13(14-6-2-1-3-7-14)10-4-5-11-12(8-10)17-9-16-11/h4-5,8H,1-3,6-7,9H2",BXBNADAPIHHXJQ-UHFFFAOYSA-N,O1c2cc(ccc2OC1)C(=O)N1CCCCC1,C8H9NO2,233.267,2.0810,2,217.00,0,98.080734,1,"1,3-benzodioxol-5-yl(1-piperidyl)methanone"
"InChI=1S/C19H21N3O6S/c1-28-15-7-9-16(10-8-15)29(26,27)22-13-21(12-14-5-3-2-4-6-14)18(23)11-17(22)19(24)20-25/h2-10,17,25H,11-13H2,1H3,(H,20,24)",SUSMVCKSLVPRCL-UHFFFAOYSA-N,S(=O)(=O)(N1CN(Cc2ccccc2)C(=O)CC1C(=O)NO)c1ccc(OC)cc1,C9H10O3,419.45801,0.5130,7,349.38,0,204.76062,0,1-benzyl-3-(4-methoxyphenyl)sulfonyl-6-oxo-hexahydropyrimidine-4-carbohydroxamic acid
"InChI=1S/C19H19NO3/c1-13-16(11-19(21)22)17-10-15(23-2)8-9-18(17)20(13)12-14-6-4-3-5-7-14/h3-10H,11-12H2,1-2H3,(H,21,22)",ZEKCBTQHDTUHRJ-UHFFFAOYSA-N,O(C)c1cc2c(n(Cc3ccccc3)c(C)c2CC(O)=O)cc1,C9H8O2,309.36499,4.4660,5,294.75,0,143.2612,1,2-(1-benzyl-5-methoxy-2-methyl-indol-3-yl)acetic acid
"InChI=1S/C11H14N4O4/c12-5-1-2-13-10-7(5)14-4-15(10)11-9(18)8(17)6(3-16)19-11/h1-2,4,6,8-9,11,16-18H,3H2,(H2,12,13)",NVUDDRWKCUAERS-UHFFFAOYSA-N,O1C(CO)C(O)C(O)C1n1c2nccc(N)c2nc1,C10H11ClO3,266.25699,-1.7755,2,218.25,0,232.23631,0,"2-(7-aminoimidazo[4,5-b]pyridin-3-yl)-5-(hydroxymethyl)tetrahydrofuran-3,4-diol"
"InChI=1S/C6H13NO4/c8-2-3-5(10)6(11)4(9)1-7-3/h3-11H,1-2H2",LXBIFEVIBLOUGU-UHFFFAOYSA-N,OC1C(O)C(O)CNC1CO,C10H11N3O3S,163.17299,-2.7450,1,123.38,0,198.26947,1,"2-(hydroxymethyl)piperidine-3,4,5-triol"
"InChI=1S/C21H33N5O4/c1-2-30-21(29)24-17(15-16-9-4-3-5-10-16)20(28)26-14-8-11-18(26)19(27)25-23-13-7-6-12-22/h3-5,9-10,17-18,23H,2,6-8,11-15,22H2,1H3,(H,24,29)(H,25,27)",AEHSFPPTWRQOFS-UHFFFAOYSA-N,O(CC)C(=O)NC(Cc1ccccc1)C(=O)N1CCCC1C(=O)NNCCCCN,C10H12O3,419.526,1.1360,15,383.63,0,189.12848,1,ethyl <I>N</I>-[2-[2-[(4-aminobutylamino)carbamoyl]pyrrolidin-1-yl]-1-benzyl-2-oxo-ethyl]carbamate
"InChI=1S/C39H70O4/c1-3-5-7-9-11-13-15-17-19-20-21-22-24-26-28-30-32-34-39(41)43-38(36-40)37-42-35-33-31-29-27-25-23-18-16-14-12-10-8-6-4-2/h11,13,17,19,21-22,26,28,38,40H,3-10,12,14-16,18,20,23-25,27, 29-37H2,1-2H3",XJABYZRQSHIMPE-UHFFFAOYSA-N,O(C(COCCCCCCCCCCCCCCCC)CO)C(=O)CCCC=CCC=CCC=CCC=CCCCCC,C12H7Cl3O2,602.98499,11.2417,34,639.75,2,176.37456,0,"[1-(hexadecoxymethyl)-2-hydroxy-ethyl] (5<I>E</I>,8<I>E</I>,11<I>E</I>,14<I>E</I>)-icosa-5,8,11,14-tetraenoate"