InChI,Key,smiles,Formula,Weight,logP(o/w),b_rotN,vol,lip_violation,ASA_P,Natural,ChemicalName
"InChI=1S/C6H11NO3/c1-4(7)2-5(8)3-6(9)10/h4H,2-3,7H2,1H3,(H,9,10)",FAASBXNEOGMQHS-UHFFFAOYSA-N,OC(=O)CC(=O)CC(N)C,C14H12O3,145.15799,-0.9280,4,125.75,0,184.42943,1,5-amino-3-oxo-hexanoic acid
"InChI=1S/C6H6O3/c7-4-1-5(8)3-6(9)2-4/h1-3,7-9H",QCDYQQDYXPDABM-UHFFFAOYSA-N,Oc1cc(O)cc(O)c1,C15H12N2O,126.111,1.0930,0,109.50,0,147.18108,1,"benzene-1,3,5-triol"
"InChI=1S/C18H35O9P/c1-4-12(2)7-5-6-8-13(3)9-10-25-28(23,24)27-18-17(22)16(21)15(20)14(11-19)26-18/h7,13-22H,4-6,8-11H2,1-3H3,(H,23,24)",TYCMRLLIYCRSPF-UHFFFAOYSA-N,P(OC1OC(CO)C(O)C(O)C1O)(OCCC(CCCC=C(CC)C)C)(O)=O,C4H4KNO4S,426.44299,0.1270,12,346.50,0,250.39467,0,"[(<I>Z</I>)-3,8-dimethyldec-7-enyl] [3,4,5-trihydroxy-6-(hydroxymethyl)tetrahydropyran-2-yl] hydrogen phosphate"
"InChI=1S/C6H8O3/c7-4-1-5(8)3-6(9)2-4/h1,6-7,9H,2-3H2",JUOPGIRJUCFNBD-UHFFFAOYSA-N,OC1CC(=O)C=C(O)C1,C7H6O3,128.127,-0.4890,0,109.50,0,137.09918,1,"3,5-dihydroxycyclohex-2-en-1-one"
"InChI=1S/C10H10O2/c11-9-6-5-7-3-1-2-4-8(7)10(9)12/h1-6,9-12H",QPUHWUSUBHNZCG-UHFFFAOYSA-N,OC1C=Cc2c(cccc2)C1O,C7H8N4O2,162.188,1.3940,0,154.00,0,102.53596,0,"1,2-dihydronaphthalene-1,2-diol"
"InChI=1S/C2H5NO/c3-1-2-4/h2H,1,3H2",LYIIBVSRGJSHAV-UHFFFAOYSA-N,O=CCN,C8H10N4O2,59.068001,-0.8710,1,55.38,0,145.13585,1,2-aminoacetaldehyde
"InChI=1S/C3H8N2O2/c4-1-2(5)3(6)7/h2H,1,4-5H2,(H,6,7)",PECYZEOJVXMISF-UHFFFAOYSA-N,OC(=O)C(N)CN,C8H14ClN5,104.109,-4.3147,2,83.38,0,210.49847,1,"2,3-diaminopropanoic acid"
"InChI=1S/C39H66N7O17P3S/c1-4-5-6-7-8-9-10-11-12-13-14-15-16-17-18-19-30(48)67-23-22-41-29(47)20-21-42-37(51)34(50)39(2,3)25-60-66(57,58)63-65(55,56)59-24-28-33(62-64(52,53)54)32(49)38(61-28)46-27-45-3 1-35(40)43-26-44-36(31)46/h8-9,11-12,26-28,32-34,38,49-",YECLLIMZHNYFCK-UHFFFAOYSA-N,S(C(=O)CCCCCCCC=CCC=CCCCCC)CCNC(=O)CCNC(=O)C(O)C(COP(OP(OCC1OC(n2c3ncnc(N)c3nc2)C(O)C1OP(O)(O)=O)(O)=O)(O)=O)(C)C,C8H8O3,1029.9769,0.5301,36,810.38,3,660.37769,1,"<I>S</I>-[2-[3-[[4-[[[5-(6-aminopurin-9-yl)-4-hydroxy-3-phosphonooxy-tetrahydrofuran-2-yl]methoxy-hydroxy-phosphoryl]oxy-hydroxy-phosphoryl]oxy-2-hydroxy-3,3-dimethyl-butanoyl]amino]propanoylamino]eth yl] (9<I>E</I>,12<I>E</I>)-octadeca-9,12-dienethioate"
"InChI=1S/C12H10O4/c1-7-5-12(14)16-11-6-9(15-8(2)13)3-4-10(7)11/h3-6H,1-2H3",HXVZGASCDAGAPS-UHFFFAOYSA-N,O1c2c(ccc(OC(=O)C)c2)C(=CC1=O)C,C8H9NO2,218.20799,2.1890,2,203.38,0,112.90613,0,(4-methyl-2-oxo-chromen-7-yl) acetate
"InChI=1S/C8H21N3/c9-5-1-3-7-11-8-4-2-6-10/h11H,1-10H2",UODZHRGDSPLRMD-UHFFFAOYSA-N,N(CCCCN)CCCCN,C9H10O3,159.27699,-0.1650,8,157.13,0,170.95338,1,"<I>N</I>'-(4-aminobutyl)butane-1,4-diamine"
"InChI=1S/C7H6O5/c8-4-1-3(7(11)12)2-5(9)6(4)10/h1-2,8-10H,(H,11,12)",LNTHITQWFMADLM-UHFFFAOYSA-N,Oc1c(O)cc(cc1O)C(O)=O,C9H8O2,170.12,0.7290,1,135.25,0,220.36096,1,"3,4,5-trihydroxybenzoic acid"
"InChI=1S/C4H2O4/c5-3(6)1-2-4(7)8/h(H,5,6)(H,7,8)",YTIVTFGABIZHHX-UHFFFAOYSA-N,OC(=O)C#CC(O)=O,C10H11ClO3,114.056,0.0460,2,98.13,0,218.42252,0,but-2-ynedioic acid
"InChI=1S/C7H4O6/c8-5-2-3(6(9)10)1-4(13-5)7(11)12/h1-2H,(H,9,10)(H,11,12)",VRMXCPVFSJVVCA-UHFFFAOYSA-N,O1C(=CC(=CC1=O)C(O)=O)C(O)=O,C10H11N3O3S,184.103,0.0400,2,143.75,0,260.36954,1,"6-oxopyran-2,4-dicarboxylic acid"
"InChI=1S/C7H6O7/c8-4(7(13)14)1-3(6(11)12)2-5(9)10/h1-2,9-10H,(H,11,12)(H,13,14)",NIZSMIZACUKPLL-UHFFFAOYSA-N,OC(=O)C(=CC(=O)C(O)=O)C=C(O)O,C10H12O3,202.118,-0.3150,4,152.00,0,300.98114,0,"(<I>E</I>)-2-(2,2-dihydroxyvinyl)-4-oxo-pent-2-enedioic acid"
"InChI=1S/C7H6O7/c8-4(7(13)14)1-3(6(11)12)2-5(9)10/h1H,2H2,(H,9,10)(H,11,12)(H,13,14)",POTZSFVTPSBXLW-UHFFFAOYSA-N,OC(=O)C(CC(O)=O)=CC(=O)C(O)=O,C12H7Cl3O2,202.118,-0.9900,5,152.00,0,305.73969,1,"(<I>E</I>)-4-oxobut-2-ene-1,2,4-tricarboxylic acid"
"InChI=1S/C55H90O/c1-45(2)23-13-24-46(3)25-14-26-47(4)27-15-28-48(5)29-16-30-49(6)31-17-32-50(7)33-18-34-51(8)35-19-36-52(9)37-20-38-53(10)39-21-40-54(11)41-22-42-55(12)43-44-56/h23,25,27,29,31,33,35,3 7,39,41,43,56H,13-22,24,26,28,30,32,34,36,38,40,42,44H2",TXKJNHBRVLCYFX-UHFFFAOYSA-N,OCC=C(CCC=C(CCC=C(CCC=C(CCC=C(CCC=C(CCC=C(CCC=C(CCC=C(CCC=C(CCC=C(C)C)C)C)C)C)C)C)C)C)C)C,C13H10N2O3S,767.32397,9.0500,31,847.75,2,130.27046,1,"(2<I>E</I>,6<I>E</I>,10<I>E</I>,14<I>E</I>,18<I>Z</I>,22<I>E</I>,26<I>E</I>,30<I>E</I>,34<I>E</I>,38<I>E</I>)-3,7,11,15,19,23,27,31,35,39,43-undecamethyltetratetraconta-2,6,10,14,18,22,26,30,34,38,42- undecaen-1-ol"
"InChI=1S/C6H10O4/c1-4(7)2-5(8)3-6(9)10/h5,8H,2-3H2,1H3,(H,9,10)",APWDZEIBFNZVND-UHFFFAOYSA-N,OC(CC(=O)C)CC(O)=O,C13H18O2,146.142,-0.9210,4,122.88,0,165.39156,0,3-hydroxy-5-oxo-hexanoic acid
"InChI=1S/C20H39NO12P2/c1-5-13(2)8-6-7-9-14(3)10-11-30-34(26,27)33-35(28,29)32-20-17(21-15(4)23)19(25)18(24)16(12-22)31-20/h8,14,16-20,22,24-25H,5-7,9-12H2,1-4H3,(H,21,23)(H,26,27)(H,28,29)",GXWRCBMYVOWMBQ-UHFFFAOYSA-N,P(OC1OC(CO)C(O)C(O)C1NC(=O)C)(OP(OCCC(CCCC=C(CC)C)C)(O)=O)(O)=O,C13H9Cl3N2O,547.47498,-0.8080,16,419.63,3,311.29947,1,"[3-acetamido-4,5-dihydroxy-6-(hydroxymethyl)tetrahydropyran-2-yl] [[(<I>E</I>)-3,8-dimethyldec-7-enoxy]-hydroxy-phosphoryl] hydrogen phosphate"
"InChI=1S/C6H6NO6P/c8-7(9)5-1-3-6(4-2-5)13-14(10,11)12/h1-4H,(H2,10,11,12)",XZKIHKMTEMTJQX-UHFFFAOYSA-N,P(Oc1ccc([N+](=O)[O-])cc1)(O)(O)=O,C14H12O3,219.08899,0.2980,3,154.63,0,228.28253,0,(4-nitrophenyl) dihydrogen phosphate
"InChI=1S/C8H16O2/c1-2-3-4-5-6-7-8(9)10/h2-7H2,1H3,(H,9,10)",WWZKQHOCKIZLMA-UHFFFAOYSA-N,OC(=O)CCCCCCC,C15H12N2O,144.21399,2.6060,6,143.88,0,99.487221,1,octanoic acid
"InChI=1S/C29H50N7O17P3S/c1-4-5-6-7-8-9-20(38)57-13-12-31-19(37)10-11-32-27(41)24(40)29(2,3)15-50-56(47,48)53-55(45,46)49-14-18-23(52-54(42,43)44)22(39)28(51-18)36-17-35-21-25(30)33-16-34-26(21)36/h16- 18,22-24,28,39-40H,4-15H2,1-3H3,(H,31,37)(H,32,41)(H,45",KQMZYOXOBSXMII-UHFFFAOYSA-N,S(C(=O)CCCCCCC)CCNC(=O)CCNC(=O)C(O)C(COP(OP(OCC1OC(n2c3ncnc(N)c3nc2)C(O)C1OP(O)(O)=O)(O)=O)(O)=O)(C)C,C4H4KNO4S,893.73901,-2.3479,28,656.25,3,600.97174,1,"<I>S</I>-[2-[3-[[4-[[[5-(6-aminopurin-9-yl)-4-hydroxy-3-phosphonooxy-tetrahydrofuran-2-yl]methoxy-hydroxy-phosphoryl]oxy-hydroxy-phosphoryl]oxy-2-hydroxy-3,3-dimethyl-butanoyl]amino]propanoylamino]eth yl] octanethioate"
"InChI=1S/C27H44N7O19P3S/c1-14(35)8-15(36)9-18(38)57-7-6-29-17(37)4-5-30-25(41)22(40)27(2,3)11-50-56(47,48)53-55(45,46)49-10-16-21(52-54(42,43)44)20(39)26(51-16)34-13-33-19-23(28)31-12-32-24(19)34/h12- 13,15-16,20-22,26,36,39-40H,4-11H2,1-3H3,(H,29,37)(H,30",LTOOEXBCTAXFSU-UHFFFAOYSA-N,S(C(=O)CC(O)CC(=O)C)CCNC(=O)CCNC(=O)C(O)C(COP(OP(OCC1OC(n2c3ncnc(N)c3nc2)C(O)C1OP(O)(O)=O)(O)=O)(O)=O)(C)C,C7H6O3,895.66699,-5.8749,26,635.13,3,746.20844,0,"<I>S</I>-[2-[3-[[4-[[[5-(6-aminopurin-9-yl)-4-hydroxy-3-phosphonooxy-tetrahydrofuran-2-yl]methoxy-hydroxy-phosphoryl]oxy-hydroxy-phosphoryl]oxy-2-hydroxy-3,3-dimethyl-butanoyl]amino]propanoylamino]eth yl] 3-hydroxy-5-oxo-hexanethioate"
"InChI=1S/C28H40N7O18P3S/c1-28(2,22(39)25(40)31-8-7-18(37)30-9-10-57-27(41)15-3-5-16(36)6-4-15)12-50-56(47,48)53-55(45,46)49-11-17-21(52-54(42,43)44)20(38)26(51-17)35-14-34-19-23(29)32-13-33-24(19)35/h 3-6,13-14,17,20-22,26,36,38-39H,7-12H2,1-2H3,(H,30,37)(",LTVXPVBFJBTNIJ-UHFFFAOYSA-N,S(C(=O)c1ccc(O)cc1)CCNC(=O)CCNC(=O)C(O)C(COP(OP(OCC1OC(n2c3ncnc(N)c3nc2)C(O)C1OP(O)(O)=O)(O)=O)(O)=O)(C)C,C7H8N4O2,887.64697,-3.6789,23,637.75,3,660.71729,1,"<I>S</I>-[2-[3-[[4-[[[5-(6-aminopurin-9-yl)-4-hydroxy-3-phosphonooxy-tetrahydrofuran-2-yl]methoxy-hydroxy-phosphoryl]oxy-hydroxy-phosphoryl]oxy-2-hydroxy-3,3-dimethyl-butanoyl]amino]propanoylamino]eth yl] 4-hydroxybenzenecarbothioate"
"InChI=1S/C45H74N7O20P3S/c1-23(26-7-8-27-34-28(18-31(55)45(26,27)5)44(4)12-10-25(53)16-24(44)17-29(34)54)6-9-33(57)76-15-14-47-32(56)11-13-48-41(60)38(59)43(2,3)20-69-75(66,67)72-74(64,65)68-19-30-37(7 1-73(61,62)63)36(58)42(70-30)52-22-51-35-39(46)49-21-50",ZKWNOTQHFKYUNU-UHFFFAOYSA-N,S(C(=O)CCC(C)C1CCC2C3C(CC(O)C12C)C1(C(CC3O)CC(O)CC1)C)CCNC(=O)CCNC(=O)C(O)C(COP(OP(OCC1OC(n2c3ncnc(N)c3nc2)C(O)C1OP(O)(O)=O)(O)=O)(O)=O)(C)C,C8H10N4O2,1158.104,-1.0549,26,839.00,3,700.4895,0,"<I>S</I>-[2-[3-[[4-[[[5-(6-aminopurin-9-yl)-4-hydroxy-3-phosphonooxy-tetrahydrofuran-2-yl]methoxy-hydroxy-phosphoryl]oxy-hydroxy-phosphoryl]oxy-2-hydroxy-3,3-dimethyl-butanoyl]amino]propanoylamino]eth yl] 4-(3,7,12-trihydroxy-10,13-dimethyl-2,3,4,5,6,7,8,9,11,12,14,15,16,17-tetradecahydro-1<I>H</I>-cyclopenta[a]phenanthren-17-yl)pentanethioate"
"InChI=1S/C8H15NO4/c1-3-4-6(8(12)13)9-5(2)7(10)11/h5-6,9H,3-4H2,1-2H3,(H,10,11)(H,12,13)",AMDDRMIFTJHJGD-UHFFFAOYSA-N,OC(=O)C(NC(C(O)=O)C)CCC,C8H14ClN5,189.211,0.8890,6,162.25,0,172.69882,1,2-(1-carboxyethylamino)pentanoic acid
"InChI=1S/C7H12O4/c8-6(9)4-2-1-3-5-7(10)11/h1-5H2,(H,8,9)(H,10,11)",WLJVNTCWHIRURA-UHFFFAOYSA-N,OC(=O)CCCCCC(O)=O,C8H8O3,160.16899,0.8020,6,138.38,0,182.53185,1,heptanedioic acid
"InChI=1S/C41H74N7O17P3S/c1-26(2)11-8-12-27(3)13-9-14-28(4)15-10-16-29(5)21-32(50)69-20-19-43-31(49)17-18-44-39(53)36(52)41(6,7)23-62-68(59,60)65-67(57,58)61-22-30-35(64-66(54,55)56)34(51)40(63-30)48-2 5-47-33-37(42)45-24-46-38(33)48/h24-30,34-36,40,51-52H,",NRJQGHHZMSOUEN-UHFFFAOYSA-N,S(C(=O)CC(CCCC(CCCC(CCCC(C)C)C)C)C)CCNC(=O)CCNC(=O)C(O)C(COP(OP(OCC1OC(n2c3ncnc(N)c3nc2)C(O)C1OP(O)(O)=O)(O)=O)(O)=O)(C)C,C8H9NO2,1062.063,2.6201,36,841.00,3,662.75525,0,"<I>S</I>-[2-[3-[[4-[[[5-(6-aminopurin-9-yl)-4-hydroxy-3-phosphonooxy-tetrahydrofuran-2-yl]methoxy-hydroxy-phosphoryl]oxy-hydroxy-phosphoryl]oxy-2-hydroxy-3,3-dimethyl-butanoyl]amino]propanoylamino]eth yl] 3,7,11,15-tetramethylhexadecanethioate"
"InChI=1S/C29H42N7O17P3S/c1-29(2,24(40)27(41)32-9-8-19(37)31-10-11-57-20(38)12-17-6-4-3-5-7-17)14-50-56(47,48)53-55(45,46)49-13-18-23(52-54(42,43)44)22(39)28(51-18)36-16-35-21-25(30)33-15-34-26(21)36/h 3-7,15-16,18,22-24,28,39-40H,8-14H2,1-2H3,(H,31,37)(H,3",ZIGIFDRJFZYEEQ-UHFFFAOYSA-N,S(C(=O)Cc1ccccc1)CCNC(=O)CCNC(=O)C(O)C(COP(OP(OCC1OC(n2c3ncnc(N)c3nc2)C(O)C1OP(O)(O)=O)(O)=O)(O)=O)(C)C,C9H10O3,885.67499,-3.2829,24,646.63,3,590.75537,1,"<I>S</I>-[2-[3-[[4-[[[5-(6-aminopurin-9-yl)-4-hydroxy-3-phosphonooxy-tetrahydrofuran-2-yl]methoxy-hydroxy-phosphoryl]oxy-hydroxy-phosphoryl]oxy-2-hydroxy-3,3-dimethyl-butanoyl]amino]propanoylamino]eth yl] 2-phenylethanethioate"
"InChI=1S/C25H40N7O20P3S/c1-25(2,19(37)22(38)28-4-3-14(34)27-5-6-56-15(35)7-12(33)24(39)40)9-49-55(46,47)52-54(44,45)48-8-13-18(51-53(41,42)43)17(36)23(50-13)32-11-31-16-20(26)29-10-30-21(16)32/h10-13, 17-19,23,33,36-37H,3-9H2,1-2H3,(H,27,34)(H,28,38)(H,39,",HJQWLHMLMCDAEL-UHFFFAOYSA-N,S(C(=O)CC(O)C(O)=O)CCNC(=O)CCNC(=O)C(O)C(COP(OP(OCC1OC(n2c3ncnc(N)c3nc2)C(O)C1OP(O)(O)=O)(O)=O)(O)=O)(C)C,C9H8O2,883.612,-6.1389,25,610.38,3,703.94513,0,"4-[2-[3-[[4-[[[5-(6-aminopurin-9-yl)-4-hydroxy-3-phosphonooxy-tetrahydrofuran-2-yl]methoxy-hydroxy-phosphoryl]oxy-hydroxy-phosphoryl]oxy-2-hydroxy-3,3-dimethyl-butanoyl]amino]propanoylamino]ethylsulfa nyl]-2-hydroxy-4-oxo-butanoic acid"
"InChI=1S/C5H12N2O2/c6-3-1-2-4(7)5(8)9/h4H,1-3,6-7H2,(H,8,9)",AHLPHDHHMVZTML-UHFFFAOYSA-N,OC(=O)C(N)CCCN,C10H11ClO3,132.16299,-3.4307,4,113.00,0,212.15868,1,"2,5-diaminopentanoic acid"
"InChI=1S/C15H22N2O18P2/c18-5-1-2-17(15(26)16-5)12-9(22)6(19)4(32-12)3-31-36(27,28)35-37(29,30)34-14-10(23)7(20)8(21)11(33-14)13(24)25/h1-2,4,6-12,14,19-23H,3H2,(H,24,25)(H,27,28)(H,29,30)(H,16,18,26)",HDYANYHVCAPMJV-UHFFFAOYSA-N,P(OC1OC(C(O)=O)C(O)C(O)C1O)(OP(OCC1OC(N2C=CC(=O)NC2=O)C(O)C1O)(O)=O)(O)=O,C10H11N3O3S,580.28497,-6.5030,9,377.88,3,506.42896,1,"6-[[[5-(2,4-dioxopyrimidin-1-yl)-3,4-dihydroxy-tetrahydrofuran-2-yl]methoxy-hydroxy-phosphoryl]oxy-hydroxy-phosphoryl]oxy-3,4,5-trihydroxy-tetrahydropyran-2-carboxylic acid"
"InChI=1S/C12H26O7P2/c1-4-11(2)7-5-6-8-12(3)9-10-18-21(16,17)19-20(13,14)15/h7,12H,4-6,8-10H2,1-3H3,(H,16,17)(H2,13,14,15)",FFBTVOMODCZDNV-UHFFFAOYSA-N,P(OCCC(CCCC=C(CC)C)C)(OP(O)(O)=O)(O)=O,C10H12O3,344.28101,1.3300,11,261.88,0,231.0556,0,"[(<I>E</I>)-3,8-dimethyldec-7-enyl] phosphono hydrogen phosphate"
"InChI=1S/C6H14N2O2/c7-3-1-2-5(8)4-6(9)10/h5H,1-4,7-8H2,(H,9,10)",QKEWQOJCHPFEAF-UHFFFAOYSA-N,OC(=O)CC(N)CCCN,C12H7Cl3O2,146.19,-0.9440,5,128.75,0,209.80725,1,"3,6-diaminohexanoic acid"
"InChI=1S/C6H11O10P/c7-2(1-16-17(13,14)15)3(8)4(9)5(10)6(11)12/h2-3,5,7-8,10H,1H2,(H,11,12)(H2,13,14,15)",BDUIIKXSXFDPEC-UHFFFAOYSA-N,P(OCC(O)C(O)C(=O)C(O)C(O)=O)(O)(O)=O,C13H10N2O3S,274.11798,-3.9500,7,177.00,1,382.91599,0,"2,4,5-trihydroxy-3-oxo-6-phosphonooxy-hexanoic acid"
"InChI=1S/C43H58N8O6S2/c1-9-25-33-17-36-40(23(5)58-18-28(44)42(56)46-7)22(4)32(50-36)14-30-20(2)26(10-12-38(52)53)34(48-30)16-35-27(11-13-39(54)55)21(3)31(49-35)15-37(51-33)41(25)24(6)59-19-29(45)43(57 )47-8/h14-17,23-24,28-29,37,48-50H,9-13,18-19,44-45H2,1",SOYOWSWLLUMDSN-UHFFFAOYSA-N,S(C(C)C=1C2N=C(C=C3NC(=Cc4[nH]c(C=C5NC(=C2)C(C)=C5CCC(O)=O)c(CCC(O)=O)c4C)C(C)=C3C(SCC(N)C(=O)NC)C)C=1CC)CC(N)C(=O)NC,C13H18O2,847.11896,3.2340,19,730.25,3,458.13858,1,"3-[(5<I>Z</I>,9<I>Z</I>,15<I>Z</I>,19<I>Z</I>)-8,13-bis[1-[2-amino-3-(methylamino)-3-oxo-propyl]sulfanylethyl]-18-(2-carboxyethyl)-12-ethyl-3,7,17-trimethyl-14,21,22,24-tetrahydroporphyrin-2-yl]propan oic acid"
"InChI=1S/C10H10N2O/c11-10(13)5-7-6-12-9-4-2-1-3-8(7)9/h1-4,6,12H,5H2,(H2,11,13)",ZOAMBXDOGPRZLP-UHFFFAOYSA-N,O=C(N)Cc1c2c([nH]c1)cccc2,C13H9Cl3N2O,174.203,1.1380,2,166.75,0,153.31543,1,2-(1H-indol-3-yl)acetamide
"InChI=1S/C3H7NO2/c1-3(2)4(5)6/h3H,1-2H3",FGLBSLMDCBOPQK-UHFFFAOYSA-N,O=[N+]([O-])C(C)C,C14H12O3,89.094002,0.9900,1,81.50,0,80.942917,0,2-nitropropane
"InChI=1S/C7H6O6/c8-5(9)2-1-4(7(12)13)3-6(10)11/h1-3H,(H,8,9)(H,10,11)(H,12,13)",KJOVGYUGXHIVAY-UHFFFAOYSA-N,OC(=O)C(C=CC(O)=O)=CC(O)=O,C15H12N2O,186.11899,0.0110,4,147.38,0,284.34906,1,"(1<I>E</I>,3<I>E</I>)-buta-1,3-diene-1,2,4-tricarboxylic acid"
"InChI=1S/C8H7NO2/c10-5-7-3-1-2-4-8(7)9-6-11/h1-6H,(H,9,11)",PVIMSPYDDGDCTG-UHFFFAOYSA-N,O=Cc1ccccc1NC=O,C4H4KNO4S,149.149,1.0990,3,144.38,0,138.72002,0,<I>N</I>-(2-formylphenyl)formamide
"InChI=1S/C3H6N2O2/c4-2-1-7-5-3(2)6/h2H,1,4H2,(H,5,6)",DYDCUQKUCUHJBH-UHFFFAOYSA-N,O1NC(=O)C(N)C1,C7H6O3,102.09299,-1.5880,0,81.38,0,188.90875,1,4-aminoisoxazolidin-3-one
InChI=1S/H2S/h1H2,RWSOTUBLDIXVET-UHFFFAOYSA-N,S,C7H8N4O2,34.082001,-0.0620,0,25.38,0,86.985939,1,hydrogen sulfide
"InChI=1S/C6H7NO/c7-5-1-3-6(8)4-2-5/h1-4,8H,7H2",PLIKAWJENQZMHA-UHFFFAOYSA-N,Oc1ccc(N)cc1,C8H10N4O2,109.128,0.9260,0,104.50,0,111.23668,0,4-aminophenol
"InChI=1S/C6H14N2O3/c7-5(6(9)10)3-1-2-4-8-11/h5,8,11H,1-4,7H2,(H,9,10)",FZQOIMPLZAYIKU-UHFFFAOYSA-N,OC(=O)C(N)CCCCNO,C8H14ClN5,162.189,-2.8747,6,135.13,0,242.1097,1,2-amino-6-(hydroxyamino)hexanoic acid
"InChI=1S/C27H46O2/c1-17(2)7-6-8-18(3)21-9-10-22-25-23(12-14-27(21,22)5)26(4)13-11-20(28)15-19(26)16-24(25)29/h16-18,20-25,28-29H,6-15H2,1-5H3",OYXZMSRRJOYLLO-UHFFFAOYSA-N,OC1CC2=CC(O)C3C4CCC(C(CCCC(C)C)C)C4(CCC3C2(CC1)C)C,C8H8O3,402.66299,6.6120,5,363.00,1,80.236748,0,"17-(1,5-dimethylhexyl)-10,13-dimethyl-2,3,4,7,8,9,11,12,14,15,16,17-dodecahydro-1<I>H</I>-cyclopenta[a]phenanthrene-3,7-diol"
"InChI=1S/C10H12N2O/c1-12-9(4-5-10(12)13)8-3-2-6-11-7-8/h2-3,6-7,9H,4-5H2,1H3",UIKROCXWUNQSPJ-UHFFFAOYSA-N,O=C1N(C)C(CC1)c1cccnc1,C8H9NO2,176.21899,0.4680,1,173.00,0,83.701469,1,1-methyl-5-(3-pyridyl)pyrrolidin-2-one
"InChI=1S/C10H14N2O/c1-12(13)7-3-5-10(12)9-4-2-6-11-8-9/h2,4,6,8,10H,3,5,7H2,1H3",RWFBQHICRCUQJJ-UHFFFAOYSA-N,[O-][N+]1(CCCC1c1cccnc1)C,C9H10O3,178.235,1.2270,1,165.75,0,68.076576,1,3-(1-methyl-1-oxido-pyrrolidin-1-ium-2-yl)pyridine
"InChI=1S/C16H22N2O6/c1-17-6-3-5-10(17)9-4-2-7-18(8-9)15-13(21)11(19)12(20)14(24-15)16(22)23/h2,4,7-8,10-15,19-21H,3,5-6H2,1H3/p+1",SAWAIULJDYFLPD-UHFFFAOYSA-O,O1C(C(O)=O)C(O)C(O)C(O)C1[n+]1cc(ccc1)C1N(CCC1)C,C9H8O2,339.36798,-0.0690,3,287.00,0,241.33711,0,"3,4,5-trihydroxy-6-[3-(1-methylpyrrolidin-2-yl)pyridin-1-ium-1-yl]tetrahydropyran-2-carboxylic acid"
"InChI=1S/C16H20N2O7/c1-17-9(4-5-10(17)19)8-3-2-6-18(7-8)15-13(22)11(20)12(21)14(25-15)16(23)24/h2-3,6-7,9,11-15,20-22H,4-5H2,1H3/p+1",XWZCZWKUGIQPJD-UHFFFAOYSA-O,O1C(C(O)=O)C(O)C(O)C(O)C1[n+]1cc(ccc1)C1N(C)C(=O)CC1,C10H11ClO3,353.35098,-0.9760,3,293.25,0,268.86432,1,"3,4,5-trihydroxy-6-[3-(1-methyl-5-oxo-pyrrolidin-2-yl)pyridin-1-ium-1-yl]tetrahydropyran-2-carboxylic acid"
"InChI=1S/C9H10N2O/c12-9-4-3-8(11-9)7-2-1-5-10-6-7/h1-2,5-6,8H,3-4H2,(H,11,12)",FXFANIORDKRCCA-UHFFFAOYSA-N,O=C1NC(CC1)c1cccnc1,C10H11N3O3S,162.192,0.2710,1,154.75,0,94.61422,0,5-(3-pyridyl)pyrrolidin-2-one
"InChI=1S/C10H12N2O2/c1-12-8(5-9(13)10(12)14)7-3-2-4-11-6-7/h2-4,6,8-9,13H,5H2,1H3",XOKCJXZZNAUIQN-UHFFFAOYSA-N,OC1CC(N(C)C1=O)c1cccnc1,C10H12O3,192.218,-0.1930,1,178.63,0,127.50891,1,3-hydroxy-1-methyl-5-(3-pyridyl)pyrrolidin-2-one
"InChI=1S/C10H12N2O2/c1-12-9(13)4-5-10(12,14)8-3-2-6-11-7-8/h2-3,6-7,14H,4-5H2,1H3",BBNHNZGTKSWIHD-UHFFFAOYSA-N,OC1(N(C)C(=O)CC1)c1cccnc1,C12H7Cl3O2,192.218,0.4540,1,172.75,0,109.85809,1,5-hydroxy-1-methyl-5-(3-pyridyl)pyrrolidin-2-one
"InChI=1S/C16H20N2O8/c1-18-8(7-3-2-4-17-6-7)5-9(14(18)22)25-16-12(21)10(19)11(20)13(26-16)15(23)24/h2-4,6,8-13,16,19-21H,5H2,1H3,(H,23,24)",WALNNKZUGHYSCT-UHFFFAOYSA-N,O1C(C(O)=O)C(O)C(O)C(O)C1OC1CC(N(C)C1=O)c1cccnc1,C13H10N2O3S,368.34198,-1.9100,4,299.25,0,257.12607,0,"3,4,5-trihydroxy-6-[1-methyl-2-oxo-5-(3-pyridyl)pyrrolidin-3-yl]oxy-tetrahydropyran-2-carboxylic acid"
"InChI=1S/C6H5ClO4/c7-4(3-6(10)11)1-2-5(8)9/h1-3H,(H,8,9)(H,10,11)",ICMVYBXQDUXEEE-UHFFFAOYSA-N,Cl\C(=C/C(O)=O)\C=C\C(O)=O,C13H18O2,176.55499,1.2590,3,137.75,0,201.11584,1,"(2<I>Z</I>,4<I>E</I>)-3-chlorohexa-2,4-dienedioic acid"
InChI=1S/C6H8O2/c7-5-3-1-2-4-6(5)8/h1-8H,YDRSQRPHLBEPTP-UHFFFAOYSA-N,OC1C=CC=CC1O,C13H9Cl3N2O,112.128,0.0800,0,103.00,0,117.05098,0,"cyclohexa-3,5-diene-1,2-diol"
"InChI=1S/C6H6O5/c7-4(3-6(10)11)1-2-5(8)9/h1-2H,3H2,(H,8,9)(H,10,11)",SOXXPQLIZIPMIZ-UHFFFAOYSA-N,OC(=O)CC(=O)\C=C\C(O)=O,C14H12O3,158.10899,-0.4130,4,129.50,0,236.52888,1,(<I>E</I>)-4-oxohex-2-enedioic acid
"InChI=1S/C27H46O/c1-18(2)7-6-8-19(3)23-11-12-24-22-10-9-20-17-21(28)13-15-26(20,4)25(22)14-16-27(23,24)5/h10,18-21,23-25,28H,6-9,11-17H2,1-5H3",IZVFFXVYBHFIHY-UHFFFAOYSA-N,OC1CC2CC=C3C4CCC(C(CCCC(C)C)C)C4(CCC3C2(CC1)C)C,C15H12N2O,386.664,7.3280,5,359.00,1,55.60054,1,"17-(1,5-dimethylhexyl)-10,13-dimethyl-2,3,4,5,6,9,11,12,14,15,16,17-dodecahydro-1<I>H</I>-cyclopenta[a]phenanthren-3-ol"
"InChI=1S/C8H16O2S2/c9-8(10)4-2-1-3-7(12)5-6-11/h7,11-12H,1-6H2,(H,9,10)",IZFHEQBZOYJLPK-UHFFFAOYSA-N,SC(CCCCC(O)=O)CCS,C4H4KNO4S,208.34599,2.6740,7,175.88,0,208.08324,0,"6,8-bis(sulfanyl)octanoic acid"
"InChI=1S/C6H13O10P/c7-2(1-16-17(13,14)15)3(8)4(9)5(10)6(11)12/h2-5,7-10H,1H2,(H,11,12)(H2,13,14,15)",BIRSGZKFKXLSJQ-UHFFFAOYSA-N,P(OCC(O)C(O)C(O)C(O)C(O)=O)(O)(O)=O,C7H6O3,276.134,-4.0780,7,177.00,1,346.76382,1,"2,3,4,5-tetrahydroxy-6-phosphonooxy-hexanoic acid"
"InChI=1S/C5H9NO3/c1-3(7)2-4(6)5(8)9/h4H,2,6H2,1H3,(H,8,9)",QUCHWTCTBHQQDU-UHFFFAOYSA-N,O=C(CC([NH3+])C(=O)[O-])C,C7H8N4O2,131.131,-1.1100,3,111.88,0,169.70276,0,2-azaniumyl-4-oxo-pentanoate
"InChI=1S/C4H7NO4/c5-2(4(8)9)1-3(6)7/h2H,1,5H2,(H,6,7)(H,8,9)",CKLJMWTZIZZHCS-UHFFFAOYSA-N,OC(=O)C(N)CC(O)=O,C8H10N4O2,133.103,-3.8057,3,102.38,0,233.8847,1,2-aminobutanedioic acid
"InChI=1S/C15H12O4/c16-11-4-1-10(2-5-11)3-8-14(18)13-7-6-12(17)9-15(13)19/h1-9,16-17,19H",DXDRHHKMWQZJHT-UHFFFAOYSA-N,Oc1cc(O)ccc1C(=O)C=Cc1ccc(O)cc1,C8H14ClN5,256.25699,3.1760,3,240.75,0,148.4191,1,"(<I>E</I>)-1-(2,4-dihydroxyphenyl)-3-(4-hydroxyphenyl)prop-2-en-1-one"
"InChI=1S/C11H20N4O6/c12-11(13)14-5-1-2-6(9(18)19)15-7(10(20)21)3-4-8(16)17/h6-7,15H,1-5H2,(H,16,17)(H,18,19)(H,20,21)(H4,12,13,14)",LMKYZBGVKHTLTN-UHFFFAOYSA-N,OC(=O)C(NC(CCC(O)=O)C(O)=O)CCCN=C(N)N,C8H8O3,304.30301,-0.9540,11,244.13,1,373.82635,0,2-[(1-carboxy-4-guanidino-butyl)amino]pentanedioic acid
"InChI=1S/C9H18N4O4/c1-5(7(14)15)13-6(8(16)17)3-2-4-12-9(10)11/h5-6,13H,2-4H2,1H3,(H,14,15)(H,16,17)(H4,10,11,12)",IMXSCCDUAFEIOE-UHFFFAOYSA-N,OC(=O)C(NC(C(O)=O)C)CCCN=C(N)N,C8H9NO2,246.267,-0.6480,8,204.75,1,322.64694,1,2-(1-carboxyethylamino)-5-guanidino-pentanoic acid
InChI=1S/C3H10N2/c4-2-1-3-5/h1-5H2,XFNJVJPLKCPIBV-UHFFFAOYSA-N,NCCCN,C9H10O3,74.126999,-1.1000,2,72.25,0,142.70238,0,"propane-1,3-diamine"