InChI,Key,smiles,Formula,Weight,logP(o/w),b_rotN,vol,lip_violation,ASA_P,Natural,ChemicalName
"InChI=1S/C17H16N8/c18-16(19)8-1-3-10-12(5-8)24-14(22-10)7-15-23-11-4-2-9(17(20)21)6-13(11)25-15/h1-6H,7H2,(H3,18,19)(H3,20,21)(H,22,24)(H,23,25)/p+2",QZKOOEFIMWKZPK-UHFFFAOYSA-P,[NH2+]=C(N)c1cc2nc([nH]c2cc1)Cc1[nH]c2c(n1)cc(cc2)C(=[NH2+])N,C8H14ClN5,334.38699,0.8780,4,301.88,1,338.5531,0,[amino-[2-[[5-[amino(azaniumylidene)methyl]-1<I>H</I>-benzimidazol-2-yl]methyl]-1<I>H</I>-benzimidazol-5-yl]methylene]ammonium
"InChI=1S/C17H16N8/c18-16(19)8-1-3-10-12(5-8)24-14(22-10)7-15-23-11-4-2-9(17(20)21)6-13(11)25-15/h1-6H,7H2,(H3,18,19)(H3,20,21)(H,22,24)(H,23,25)",QZKOOEFIMWKZPK-UHFFFAOYSA-N,[nH]1c2cc(ccc2nc1Cc1[nH]c2cc(ccc2n1)C(N)=N)C(N)=N,C8H8O3,332.371,1.3040,4,301.88,1,315.72174,1,2-[(6-carbamimidoyl-1<I>H</I>-benzimidazol-2-yl)methyl]-3<I>H</I>-benzimidazole-5-carboxamidine
"InChI=1S/C20H29N10O22P5/c21-15-9-17(25-3-23-15)29(5-27-9)19-13(33)11(31)7(47-19)1-45-53(35,36)49-55(39,40)51-57(43,44)52-56(41,42)50-54(37,38)46-2-8-12(32)14(34)20(48-8)30-6-28-10-16(22)24-4-26-18(10) 30/h3-8,11-14,19-20,31-34H,1-2H2,(H,35,36)(H,37,38)(H,3",OIMACDRJUANHTJ-UHFFFAOYSA-N,P(OCC1OC(n2c3ncnc(N)c3nc2)C(O)C1O)(OP(OP(OP(OP(OCC1OC(n2c3ncnc(N)c3nc2)C(O)C1O)(O)=O)(O)=O)(O)=O)(O)=O)(O)=O,C8H9NO2,916.37,-8.2059,16,582.13,3,749.52466,0,"bis[[[5-(6-aminopurin-9-yl)-3,4-dihydroxy-tetrahydrofuran-2-yl]methoxy-hydroxy-phosphoryl]oxy-hydroxy-phosphoryl] hydrogen phosphate"
"InChI=1S/C23H20N4O6/c24-12-16(8-14-2-4-18(28)20(30)10-14)22(32)26-6-1-7-27-23(33)17(13-25)9-15-3-5-19(29)21(31)11-15/h2-5,8-11,28-31H,1,6-7H2,(H,26,32)(H,27,33)",ZHOKHSGWBNPFQU-UHFFFAOYSA-N,Oc1cc(ccc1O)C=C(C(=O)NCCCNC(=O)C(=Cc1cc(O)c(O)cc1)C#N)C#N,C9H10O3,448.435,1.5000,12,405.25,1,423.62079,1,"(<I>E</I>)-2-cyano-<I>N</I>-[3-[[(<I>E</I>)-2-cyano-3-(3,4-dihydroxyphenyl)prop-2-enoyl]amino]propyl]-3-(3,4-dihydroxyphenyl)prop-2-enamide"
"InChI=1S/C17H14N2O3/c18-10-14(8-13-6-7-15(20)16(21)9-13)17(22)19-11-12-4-2-1-3-5-12/h1-9,20-21H,11H2,(H,19,22)",TUCIOBMMDDOEMM-UHFFFAOYSA-N,Oc1cc(ccc1O)C=C(C(=O)NCc1ccccc1)C#N,C9H8O2,294.31,2.4620,6,283.38,0,205.67996,1,"(<I>E</I>)-<I>N</I>-benzyl-2-cyano-3-(3,4-dihydroxyphenyl)prop-2-enamide"
"InChI=1S/C22H19NO4/c1-15(24)26-19-10-6-17(7-11-19)22(21-5-3-4-14-23-21)18-8-12-20(13-9-18)27-16(2)25/h3-14,22H,1-2H3",KHOITXIGCFIULA-UHFFFAOYSA-N,O(C(=O)C)c1ccc(cc1)C(c1ccc(OC(=O)C)cc1)c1ncccc1,C10H11ClO3,361.397,4.1940,7,346.25,0,112.97615,0,[4-[(4-acetoxyphenyl)-(2-pyridyl)methyl]phenyl] acetate
"InChI=1S/C62H64N2O20/c1-25-51(67)35(17-41(81-25)83-39-21-61(77,27(3)65)19-33-45(39)59(75)49-47(55(33)71)53(69)31-9-7-11-37(79-5)43(31)57(49)73)63-23-29-13-15-30(16-14-29)24-64-36-18-42(82-26(2)52(36)6 8)84-40-22-62(78,28(4)66)20-34-46(40)60(76)50-48(56(34)",HTOLWQNKVYAHLB-UHFFFAOYSA-P,O1C(C)C(O)C([NH2+]Cc2ccc(cc2)C[NH2+]C2CC(OC(C)C2O)OC2CC(O)(Cc3c2c(O)c2c(C(=O)c4c(C2=O)c(OC)ccc4)c3O)C(=O)C)CC1OC1CC(O)(Cc2c1c(O)c1c(C(=O)c3c(C1=O)c(OC)ccc3)c2O)C(=O)C,C10H11N3O3S,1159.204,5.3740,14,977.88,3,394.98795,1,"[6-[(3-acetyl-3,5,12-trihydroxy-10-methoxy-6,11-dioxo-2,4-dihydro-1<I>H</I>-tetracen-1-yl)oxy]-3-hydroxy-2-methyl-tetrahydropyran-4-yl]-[[4-[[[6-[(3-acetyl-3,5,12-trihydroxy-10-methoxy-6,11-dioxo-2,4- dihydro-1<I>H</I>-tetracen-1-yl)oxy]-3-hydroxy-2-methyl-tetrahydropyran-4-yl]ammonio]methyl]phenyl]methyl]ammonium"
"InChI=1S/C62H64N2O20/c1-25-51(67)35(17-41(81-25)83-39-21-61(77,27(3)65)19-33-45(39)59(75)49-47(55(33)71)53(69)31-9-7-11-37(79-5)43(31)57(49)73)63-23-29-13-15-30(16-14-29)24-64-36-18-42(82-26(2)52(36)6 8)84-40-22-62(78,28(4)66)20-34-46(40)60(76)50-48(56(34)",HTOLWQNKVYAHLB-UHFFFAOYSA-N,O1C(C)C(O)C(NCc2ccc(cc2)CNC2CC(OC(C)C2O)OC2CC(O)(Cc3c2c(O)c2c(C(=O)c4c(C2=O)c(OC)ccc4)c3O)C(=O)C)CC1OC1CC(O)(Cc2c1c(O)c1c(C(=O)c3c(C1=O)c(OC)ccc3)c2O)C(=O)C,C10H12O3,1157.188,5.3740,14,977.88,3,437.64951,0,"9-acetyl-7-[4-[[4-[[[6-[(3-acetyl-3,5,12-trihydroxy-10-methoxy-6,11-dioxo-2,4-dihydro-1<I>H</I>-tetracen-1-yl)oxy]-3-hydroxy-2-methyl-tetrahydropyran-4-yl]amino]methyl]phenyl]methylamino]-5-hydroxy-6- methyl-tetrahydropyran-2-yl]oxy-6,9,11-trihydroxy-4-methoxy-8,10-dihydro-7<I>H</I>-tetracene-5,12-dione"
"InChI=1S/C16H24N4O3S/c1-10(2)16(22)23-6-5-14(24)11(3)20(9-21)8-13-7-18-12(4)19-15(13)17/h7,9-10,24H,5-6,8H2,1-4H3,(H2,17,18,19)",RMVBUJBWDKJGRL-UHFFFAOYSA-N,SC(CCOC(=O)C(C)C)=C(N(Cc1cnc(nc1N)C)C=O)C,C12H7Cl3O2,352.45898,1.4740,9,314.25,0,198.24597,1,[(<I>Z</I>)-4-[(4-amino-2-methyl-pyrimidin-5-yl)methyl-formyl-amino]-3-sulfanyl-pent-3-enyl] 2-methylpropanoate
"InChI=1S/C25H24N4O2/c1-28(2)12-7-13-29-15-19(17-9-4-6-11-21(17)29)23-22(24(30)27-25(23)31)18-14-26-20-10-5-3-8-16(18)20/h3-6,8-11,14-15,26H,7,12-13H2,1-2H3,(H,27,30,31)",QMGUOJYZJKLOLH-UHFFFAOYSA-N,O=C1NC(=O)C(=C1c1c2c(n(c1)CCCN(C)C)cccc2)c1c2c([nH]c1)cccc2,C13H10N2O3S,412.49298,4.3780,6,395.38,0,197.01848,1,"3-[1-[3-(dimethylamino)propyl]indol-3-yl]-4-(1H-indol-3-yl)pyrrole-2,5-dione"
"InChI=1S/C27H26N4O2/c1-30-13-6-7-17(30)12-14-31-16-21(19-9-3-5-11-23(19)31)25-24(26(32)29-27(25)33)20-15-28-22-10-4-2-8-18(20)22/h2-5,8-11,15-17,28H,6-7,12-14H2,1H3,(H,29,32,33)",LBFDERUQORUFIN-UHFFFAOYSA-N,O=C1NC(=O)C(=C1c1c2c(n(c1)CCC1N(CCC1)C)cccc2)c1c2c([nH]c1)cccc2,C13H18O2,438.53098,5.0310,5,416.25,0,184.62511,0,"3-(1H-indol-3-yl)-4-[1-[2-(1-methylpyrrolidin-2-yl)ethyl]indol-3-yl]pyrrole-2,5-dione"
"InChI=1S/C23H20N4O2/c24-10-5-11-27-13-17(15-7-2-4-9-19(15)27)21-20(22(28)26-23(21)29)16-12-25-18-8-3-1-6-14(16)18/h1-4,6-9,12-13,25H,5,10-11,24H2,(H,26,28,29)",APYXQTXFRIDSGE-UHFFFAOYSA-N,O=C1NC(=O)C(=C1c1c2c(n(c1)CCCN)cccc2)c1c2c([nH]c1)cccc2,C13H9Cl3N2O,384.439,3.5850,5,359.38,0,234.68073,1,"3-[1-(3-aminopropyl)indol-3-yl]-4-(1H-indol-3-yl)pyrrole-2,5-dione"
"InChI=1S/C20H13N3O2/c24-19-17(13-9-21-15-7-3-1-5-11(13)15)18(20(25)23-19)14-10-22-16-8-4-2-6-12(14)16/h1-10,21-22H,(H,23,24,25)",DQYBRTASHMYDJG-UHFFFAOYSA-N,O=C1NC(=O)C(=C1c1c2c([nH]c1)cccc2)c1c2c([nH]c1)cccc2,C14H12O3,327.34299,3.5040,2,299.13,0,201.14972,0,"3,4-bis(1H-indol-3-yl)pyrrole-2,5-dione"
"InChI=1S/C21H15N3O2/c1-24-20(25)18(14-10-22-16-8-4-2-6-12(14)16)19(21(24)26)15-11-23-17-9-5-3-7-13(15)17/h2-11,22-23H,1H3",SWAWYMIKGOHZMR-UHFFFAOYSA-N,O=C1N(C)C(=O)C(=C1c1c2c([nH]c1)cccc2)c1c2c([nH]c1)cccc2,C15H12N2O,341.37,3.7010,2,325.00,0,171.77965,1,"3,4-bis(1H-indol-3-yl)-1-methyl-pyrrole-2,5-dione"
"InChI=1S/C27H26N4O2/c32-26-24(20-15-29-22-10-3-1-8-18(20)22)25(27(33)30-26)21-16-31(23-11-4-2-9-19(21)23)14-12-17-7-5-6-13-28-17/h1-4,8-11,15-17,28-29H,5-7,12-14H2,(H,30,32,33)",FZUIMWOIRBMAOH-UHFFFAOYSA-N,O=C1NC(=O)C(=C1c1c2c(n(c1)CCC1NCCCC1)cccc2)c1c2c([nH]c1)cccc2,C4H4KNO4S,438.53098,5.2050,5,412.38,0,179.1778,1,"3-(1H-indol-3-yl)-4-[1-[2-(2-piperidyl)ethyl]indol-3-yl]pyrrole-2,5-dione"
"InChI=1S/C27H27N5O2/c33-26-24(20-16-29-22-8-3-1-6-18(20)22)25(27(34)30-26)21-17-32(23-9-4-2-7-19(21)23)13-5-12-31-14-10-28-11-15-31/h1-4,6-9,16-17,28-29H,5,10-15H2,(H,30,33,34)",VKLVUAHQOFDKLR-UHFFFAOYSA-N,O=C1NC(=O)C(=C1c1c2c(n(c1)CCCN1CCNCC1)cccc2)c1c2c([nH]c1)cccc2,C7H6O3,453.54599,3.6350,6,426.88,0,222.66673,0,"3-(1H-indol-3-yl)-4-[1-(3-piperazin-1-ylpropyl)indol-3-yl]pyrrole-2,5-dione"
"InChI=1S/C24H22N4O2/c1-27-13-17(15-7-2-4-9-19(15)27)21-22(24(30)26-23(21)29)18-14-28(12-6-11-25)20-10-5-3-8-16(18)20/h2-5,7-10,13-14H,6,11-12,25H2,1H3,(H,26,29,30)",UQHKJRCFSLMWIA-UHFFFAOYSA-N,O=C1NC(=O)C(=C1c1c2c(n(c1)CCCN)cccc2)c1c2c(n(c1)C)cccc2,C7H8N4O2,398.466,4.1400,5,377.13,0,219.3371,1,"3-[1-(3-aminopropyl)indol-3-yl]-4-(1-methylindol-3-yl)pyrrole-2,5-dione"
"InChI=1S/C26H24N4O2/c1-29-14-18(16-6-2-4-8-19(16)29)23-24(26(32)28-25(23)31)22-17-7-3-5-9-20(17)30-11-10-15(13-27)12-21(22)30/h2-9,14-15H,10-13,27H2,1H3,(H,28,31,32)",QQKKPWJFHBFCTH-UHFFFAOYSA-N,O=C1NC(=O)C(=C1c1c2n(CCC(C2)CN)c2c1cccc2)c1c2c(n(c1)C)cccc2,C8H10N4O2,424.504,4.2950,3,384.63,0,185.32257,0,"3-[8-(aminomethyl)-6,7,8,9-tetrahydropyrido[1,2-a]indol-10-yl]-4-(1-methylindol-3-yl)pyrrole-2,5-dione"
"InChI=1S/C18H31NO4/c1-14(2)19-11-17(20)13-23-18-7-5-16(6-8-18)12-21-9-10-22-15(3)4/h5-8,14-15,17,19-20H,9-13H2,1-4H3",VHYCDWMUTMEGQY-UHFFFAOYSA-N,O(CC(O)CNC(C)C)c1ccc(cc1)COCCOC(C)C,C8H14ClN5,325.44901,2.2637,12,319.88,0,91.982002,1,1-[4-(2-isopropoxyethoxymethyl)phenoxy]-3-(isopropylamino)propan-2-ol
"InChI=1S/C12H6Cl4O2S/c13-5-1-7(15)11(17)9(3-5)19-10-4-6(14)2-8(16)12(10)18/h1-4,17-18H",JFIOVJDNOJYLKP-UHFFFAOYSA-N,Clc1cc(Cl)cc(Sc2cc(Cl)cc(Cl)c2O)c1O,C8H8O3,356.056,6.0440,2,251.13,1,93.293663,1,"2,4-dichloro-6-(3,5-dichloro-2-hydroxy-phenyl)sulfanyl-phenol"
"InChI=1S/C12H6Cl4O2S/c13-5-1-7(15)11(17)9(3-5)19-10-4-6(14)2-8(16)12(10)18/h1-4,17-18H/p-2",JFIOVJDNOJYLKP-UHFFFAOYSA-L,Clc1cc(Cl)cc(Sc2cc(Cl)cc(Cl)c2[O-])c1[O-],C8H9NO2,354.04001,6.2860,2,251.13,1,86.201607,0,"2,4-dichloro-6-(3,5-dichloro-2-oxido-phenyl)sulfanyl-phenolate"
"InChI=1S/C17H13ClN2O2/c18-11-6-7-14-13(10-11)15(21)17(22)8-9-20(16(17)19-14)12-4-2-1-3-5-12/h1-7,10,22H,8-9H2",HFWZCVZZJSUORN-UHFFFAOYSA-N,Clc1cc2c(N=C3N(CCC3(O)C2=O)c2ccccc2)cc1,C9H10O3,312.75598,3.1080,1,274.00,0,83.869644,1,"6-chloro-3<I>a</I>-hydroxy-1-phenyl-2,3-dihydropyrrolo[2,3-b]quinolin-4-one"
"InChI=1S/C18H20N2O2/c1-3-13(2)11-14-12-19-17-18(22,16(14)21)9-10-20(17)15-7-5-4-6-8-15/h3-8,11,22H,9-10,12H2,1-2H3",RAVHIRLFHVMITD-UHFFFAOYSA-N,OC12CCN(C1=NCC(=CC(=CC)C)C2=O)c1ccccc1,C9H8O2,296.37,2.0310,2,284.50,0,100.47859,0,"(5<I>E</I>)-3<I>a</I>-hydroxy-5-[(<I>E</I>)-2-methylbut-2-enylidene]-1-phenyl-3,6-dihydro-2<I>H</I>-pyrrolo[2,3-b]pyridin-4-one"
InChI=1S/C50H72N16O22S2/c1-15-28(63-41(66-39(15)53)20(7-26(52)70)58-8-19(51)40(54)76)44(79)65-30(36(21-9-56-14-59-21)86-49-38(34(74)32(72)24(10-67)85-49)87-48-35(75)37(88-50(55)83)33(73)25(11-68)84-48 )45(80)60-17(3)31(71)16(2)42(77)64-29(18(4)69)43(78)57-,MRNLLBXPSWMYCK-UHFFFAOYSA-N,s1cc(nc1-c1nc(sc1)CCNC(=O)C(NC(=O)C(C(O)C(NC(=O)C(NC(=O)c1nc(nc(N)c1C)C(NCC(N)C(=O)N)CC(=O)N)C(OC1OC(CO)C(O)C(O)C1OC1OC(CO)C(O)C(OC(=O)N)C1O)c1[nH]cnc1)C)C)C(O)C)C(O)=O,C10H11ClO3,1313.348,-11.2067,36,1012.00,3,866.90948,1,"2-[2-[2-[[2-[[4-[[2-[[6-amino-2-[3-amino-1-[(2,3-diamino-3-oxo-propyl)amino]-3-oxo-propyl]-5-methyl-pyrimidine-4-carbonyl]amino]-3-[3-[4-carbamoyloxy-3,5-dihydroxy-6-(hydroxymethyl)tetrahydropyran-2-y l]oxy-4,5-dihydroxy-6-(hydroxymethyl)tetrahydropyran-2-yl]oxy-3-(1<I>H</I>-imidazol-5-yl)propanoyl]amino]-3-hydroxy-2-methyl-pentanoyl]amino]-3-hydroxy-butanoyl]amino]ethyl]thiazol-4-yl]thiazole-4-car boxylic acid"
InChI=1S/C55H84N20O21S2/c1-19-32(72-45(75-43(19)58)24(11-30(57)79)67-12-23(56)44(59)85)49(89)74-34(40(25-13-63-18-68-25)94-53-42(38(83)36(81)28(14-76)93-53)95-52-39(84)41(96-55(62)91)37(82)29(15-77)92 -52)50(90)69-21(3)35(80)20(2)46(86)73-33(22(4)78)48(88),NBLHOLNNKJBEDC-UHFFFAOYSA-N,s1cc(nc1-c1nc(sc1)CCNC(=O)C(NC(=O)C(C(O)C(NC(=O)C(NC(=O)c1nc(nc(N)c1C)C(NCC(N)C(=O)N)CC(=O)N)C(OC1OC(CO)C(O)C(O)C1OC1OC(CO)C(O)C(OC(=O)N)C1O)c1[nH]cnc1)C)C)C(O)C)C(=O)NCCCCN=C(N)N,C10H11N3O3S,1425.528,-11.7247,42,1111.13,3,826.68976,1,"[2-[2-[2-[[6-amino-2-[3-amino-1-[(2,3-diamino-3-oxo-propyl)amino]-3-oxo-propyl]-5-methyl-pyrimidine-4-carbonyl]amino]-3-[[4-[[1-[2-[4-[4-(4-guanidinobutylcarbamoyl)thiazol-2-yl]thiazol-2-yl]ethylcarba moyl]-2-hydroxy-propyl]amino]-2-hydroxy-1,3-dimethyl-4-oxo-butyl]amino]-1-(1<I>H</I>-imidazol-5-yl)-3-oxo-propoxy]-4,5-dihydroxy-6-(hydroxymethyl)tetrahydropyran-3-yl]oxy-3,5-dihydroxy-6-(hydroxymethy l)tetrahydropyran-4-yl] carbamate"
"InChI=1S/C17H15NOS/c1-12-5-4-6-13(11-12)17-15-8-3-2-7-14(15)16(19)18(17)9-10-20-17/h2-8,11H,9-10H2,1H3",FQVDJZWFSZSGGA-UHFFFAOYSA-N,S1CCN2C1(c1c(cccc1)C2=O)c1cc(ccc1)C,C10H12O3,281.379,4.3460,1,242.63,0,89.544052,0,"9<I>b</I>-(m-tolyl)-2,3-dihydrothiazolo[2,3-a]isoindol-5-one"
"InChI=1S/C18H15NO3S/c1-22-17(21)15-11-23-18(12-7-3-2-4-8-12)14-10-6-5-9-13(14)16(20)19(15)18/h2-10,15H,11H2,1H3",JYIHODAXBBPFQF-UHFFFAOYSA-N,S1CC(N2C1(c1c(cccc1)C2=O)c1ccccc1)C(OC)=O,C12H7Cl3O2,325.388,3.9010,3,276.38,0,127.17,1,"methyl 5-oxo-9<I>b</I>-phenyl-2,3-dihydrothiazolo[2,3-a]isoindole-3-carboxylate"
"InChI=1S/C23H23ClN2O4/c1-15-19(14-22(27)25-9-11-30-12-10-25)20-13-18(29-2)7-8-21(20)26(15)23(28)16-3-5-17(24)6-4-16/h3-8,13H,9-12,14H2,1-2H3",BJSDNVVWJYDOLK-UHFFFAOYSA-N,Clc1ccc(cc1)C(=O)n1c2c(cc(OC)cc2)c(CC(=O)N2CCOCC2)c1C,C13H10N2O3S,426.89999,3.7580,6,384.88,0,147.81433,0,2-[1-(4-chlorobenzoyl)-5-methoxy-2-methyl-indol-3-yl]-1-morpholino-ethanone
"InChI=1S/C23H32N6O5S/c24-23(25)26-11-3-8-21(31)27-14-18-7-4-12-29(18)22(32)20(15-30)28-35(33,34)19-10-9-16-5-1-2-6-17(16)13-19/h1-2,5-6,9-10,13,18,20,28,30H,3-4,7-8,11-12,14-15H2,(H,27,31)(H4,24,25,26 )",NTVCMEJZWNSEFW-UHFFFAOYSA-N,S(=O)(=O)(NC(C(=O)N1CCCC1CNC(=O)CCCN=C(N)N)CO)c1cc2c(cc1)cccc2,C13H18O2,504.612,0.2970,13,430.75,3,276.55157,1,4-guanidino-<I>N</I>-[[1-[3-hydroxy-2-(2-naphthylsulfonylamino)propanoyl]pyrrolidin-2-yl]methyl]butanamide
"InChI=1S/C25H34N6O5S/c26-25(27)30-11-3-7-19(15-30)23(33)28-14-20-8-4-12-31(20)24(34)22(16-32)29-37(35,36)21-10-9-17-5-1-2-6-18(17)13-21/h1-2,5-6,9-10,13,19-20,22,29,32H,3-4,7-8,11-12,14-16H2,(H3,26,27 )(H,28,33)",JWNJPEKBZMEXIU-UHFFFAOYSA-N,S(=O)(=O)(NC(C(=O)N1CCCC1CNC(=O)C1CCCN(C1)C(N)=N)CO)c1cc2c(cc1)cccc2,C13H9Cl3N2O,530.64996,0.8540,11,457.38,3,261.6868,1,1-carbamimidoyl-<I>N</I>-[[1-[3-hydroxy-2-(2-naphthylsulfonylamino)propanoyl]pyrrolidin-2-yl]methyl]piperidine-3-carboxamide
"InChI=1S/C23H26FNO4/c1-22(2)9-10-23(3,4)16-11-13(5-7-15(16)22)19(26)20(27)25-18-8-6-14(21(28)29)12-17(18)24/h5-8,11-12,19,26H,9-10H2,1-4H3,(H,25,27)(H,28,29)",AANFHDFOMFRLLR-UHFFFAOYSA-N,Fc1cc(ccc1NC(=O)C(O)c1cc2c(cc1)C(CCC2(C)C)(C)C)C(O)=O,C14H12O3,399.46198,4.6900,5,349.25,0,168.30331,0,"3-fluoro-4-[[2-hydroxy-2-(1,1,4,4-tetramethyltetralin-6-yl)acetyl]amino]benzoic acid"
"InChI=1S/C22H31N3O3/c1-28-19-7-3-2-6-18(19)24-13-10-23(11-14-24)12-15-25-20(26)16-22(17-21(25)27)8-4-5-9-22/h2-3,6-7H,4-5,8-17H2,1H3",AYYCFGDXLUPJAQ-UHFFFAOYSA-N,O(C)c1ccccc1N1CCN(CC1)CCN1C(=O)CC2(CC1=O)CCCC2,C15H12N2O,385.508,1.8880,5,358.75,0,106.96425,1,"8-[2-[4-(2-methoxyphenyl)piperazin-1-yl]ethyl]-8-azaspiro[4.5]decane-7,9-dione"
"InChI=1S/C10H12N2O2/c1-7(11-13)9-3-5-10(6-4-9)8(2)12-14/h3-8H,1-2H3",YGWHYQBQZOCENU-UHFFFAOYSA-N,O=NC(C)c1ccc(cc1)C(N=O)C,C4H4KNO4S,192.218,3.1360,4,182.63,0,0,0,"1,4-bis(1-nitrosoethyl)benzene"
"InChI=1S/C12H14N4O6/c1-21-11(17)7-15(13-19)9-3-5-10(6-4-9)16(14-20)8-12(18)22-2/h3-6H,7-8H2,1-2H3",YBJVWRZFWFUJPT-UHFFFAOYSA-N,O(C(=O)CN(N=O)c1ccc(N(N=O)CC(OC)=O)cc1)C,C7H6O3,310.26599,2.3240,10,270.00,0,161.16917,1,methyl 2-[4-[(2-methoxy-2-oxo-ethyl)-nitroso-amino]-<I>N</I>-nitroso-anilino]acetate
"InChI=1S/C18H24N6O/c1-13(2)24-12-21-15-16(20-11-14-7-4-3-5-8-14)22-18(23-17(15)24)19-9-6-10-25/h3-5,7-8,12-13,25H,6,9-11H2,1-2H3,(H2,19,20,22,23)",OPQGFIAVPSXOBO-UHFFFAOYSA-N,OCCCNc1nc(NCc2ccccc2)c2ncn(c2n1)C(C)C,C7H8N4O2,340.431,2.3081,8,327.75,0,153.12817,1,3-[[6-(benzylamino)-9-isopropyl-purin-2-yl]amino]propan-1-ol
"InChI=1S/C28H38O7/c1-21(15-18-24(19-26(29)30)20-27(31)32)13-11-9-7-5-6-8-10-12-14-25(35-4)22(2)16-17-23(3)28(33)34/h6,8-12,15-19,21,25H,5,7,13-14,20H2,1-4H3,(H,29,30)(H,31,32)(H,33,34)",SHCXABJSXUACKU-UHFFFAOYSA-N,O(C(C(=CC=C(C(O)=O)C)C)CC=CC=CCCC=CCC(C=CC(CC(O)=O)=CC(O)=O)C)C,C8H10N4O2,486.60498,4.2560,17,475.38,1,316.81186,0,"(2<I>E</I>,4<I>E</I>,8<I>E</I>,10<I>E</I>,14<I>E</I>,18<I>E</I>,20<I>Z</I>)-20-(carboxymethyl)-6-methoxy-2,5,17-trimethyl-docosa-2,4,8,10,14,18,20-heptaenedioic acid"
"InChI=1S/C24H30N2O2/c1-17-15-21-18(11-8-12-22(21)26-17)13-14-20(16-25-24(2,3)4)28-23(27)19-9-6-5-7-10-19/h5-12,15,20,25-26H,13-14,16H2,1-4H3",RGOIQWQWXHAGDC-UHFFFAOYSA-N,O(C(=O)c1ccccc1)C(CCc1c2cc([nH]c2ccc1)C)CNC(C)(C)C,C8H14ClN5,378.51599,5.6030,9,377.25,1,63.517086,1,[1-[(tert-butylamino)methyl]-3-(2-methyl-1<I>H</I>-indol-4-yl)propyl] benzoate
"InChI=1S/C23H32BBr2N3O6/c25-20(26)12-11-19(24(34)35)28-22(32)18-9-6-13-29(18)23(33)17(15-16-7-2-1-3-8-16)27-21(31)10-4-5-14-30/h1-3,7-8,14,17-20,34-35H,4-6,9-13,15H2,(H,27,31)(H,28,32)",UBBUVYGQLRDKJX-UHFFFAOYSA-N,BrC(Br)CCC(NC(=O)C1N(CCC1)C(=O)C(NC(=O)CCCC=O)Cc1ccccc1)B(O)O,C8H8O3,617.14301,2.4644,17,468.75,1,356.69934,0,"[4,4-dibromo-1-[[1-[2-(5-oxopentanoylamino)-3-phenyl-propanoyl]pyrrolidine-2-carbonyl]amino]butyl]boronic acid"
"InChI=1S/C14H12BrN5/c15-8-2-1-3-9(4-8)20-14-10-5-11(16)12(17)6-13(10)18-7-19-14/h1-7H,16-17H2,(H,18,19,20)",ADXSZLCTQCWMTE-UHFFFAOYSA-N,Brc1cc(Nc2ncnc3c2cc(N)c(N)c3)ccc1,C8H9NO2,330.189,2.3120,2,263.25,0,184.48552,1,"<I>N</I>4-(3-bromophenyl)quinazoline-4,6,7-triamine"
"InChI=1S/C16H12BrN5/c1-22-9-20-14-6-12-13(7-15(14)22)18-8-19-16(12)21-11-4-2-3-10(17)5-11/h2-9H,1H3,(H,18,19,21)",YAMAGACQNDAKFB-UHFFFAOYSA-N,Brc1cc(Nc2ncnc3c2cc2ncn(c2c3)C)ccc1,C9H10O3,354.211,3.4300,2,295.38,0,127.86308,1,"<I>N</I>-(3-bromophenyl)-3-methyl-imidazo[4,5-g]quinazolin-8-amine"
"InChI=1S/C15H10BrN5/c16-9-2-1-3-10(4-9)21-15-11-5-13-14(19-7-18-13)6-12(11)17-8-20-15/h1-8H,(H,18,19)(H,17,20,21)",BZHDPIVTQKXAQQ-UHFFFAOYSA-N,Brc1cc(Nc2ncnc3c2cc2[nH]cnc2c3)ccc1,C9H8O2,340.18399,2.8750,2,275.75,0,130.24104,0,"<I>N</I>-(3-bromophenyl)-1<I>H</I>-imidazo[4,5-g]quinazolin-8-amine"
"InChI=1S/C14H20BrN5O2/c1-14(2)19-12(16)18-13(17)20(14)22-9-3-8-21-11-6-4-10(15)5-7-11/h4-7H,3,8-9H2,1-2H3,(H4,16,17,18,19)",MPXYCOHVHSXSDC-UHFFFAOYSA-N,Brc1ccc(OCCCON2C(N=C(N=C2N)N)(C)C)cc1,C10H11ClO3,370.25101,2.8970,6,288.63,0,161.11588,1,"1-[3-(4-bromophenoxy)propoxy]-6,6-dimethyl-1,3,5-triazine-2,4-diamine"
"InChI=1S/C16H24O4/c1-11-5-3-2-4-6-12-9-13(17)10-14(12)15(18)7-8-16(19)20-11/h4,6-8,11-15,17-18H,2-3,5,9-10H2,1H3",KQNZDYYTLMIZCT-UHFFFAOYSA-N,O1C(CCCC=CC2C(CC(O)C2)C(O)C=CC1=O)C,C10H11N3O3S,280.36398,2.0470,0,241.38,0,167.7652,0,"(2<I>Z</I>,10<I>Z</I>)-12,15-dihydroxy-7-methyl-8-oxabicyclo[11.3.0]hexadeca-2,10-dien-9-one"
"InChI=1S/C11H17BrN/c1-4-13(2,3)9-10-7-5-6-8-11(10)12/h5-8H,4,9H2,1-3H3/q+1",AAQOQKQBGPPFNS-UHFFFAOYSA-N,Brc1ccccc1C[N+](CC)(C)C,C10H12O3,243.168,2.7710,3,194.00,0,40.473244,1,(2-bromophenyl)methyl-ethyl-dimethyl-ammonium
"InChI=1S/C11H10BrN5/c12-9-7(17-11-15-5-6-16-11)1-2-8-10(9)14-4-3-13-8/h1-4H,5-6H2,(H2,15,16,17)",XYLJNLCSTIOKRM-UHFFFAOYSA-N,Brc1c2nccnc2ccc1NC=1NCCN=1,C13H9Cl3N2O,292.13998,1.4585,2,225.75,0,119.77189,0,"5-bromo-<I>N</I>-(4,5-dihydro-1<I>H</I>-imidazol-2-yl)quinoxalin-6-amine"
"InChI=1S/C19H22ClNO4.Na/c1-13(21-11-18(22)15-3-2-4-16(20)10-15)9-14-5-7-17(8-6-14)25-12-19(23)24;/h2-8,10,13,18,21-22H,9,11-12H2,1H3,(H,23,24);/q;+1/p-1",SNJIJYKMYQRHRC-UHFFFAOYSA-M,Clc1cc(ccc1)C(O)CNC(Cc1ccc(OCC(=O)[O-])cc1)C.[Na+],C14H12O3,385.823,3.6630,9,373.75,0,326.45197,1,sodium;2-[4-[2-[[2-(3-chlorophenyl)-2-hydroxy-ethyl]amino]propyl]phenoxy]acetate
"InChI=1S/C19H22ClNO4/c1-13(21-11-18(22)15-3-2-4-16(20)10-15)9-14-5-7-17(8-6-14)25-12-19(23)24/h2-8,10,13,18,21-22H,9,11-12H2,1H3,(H,23,24)",ZGGNJJJYUVRADP-UHFFFAOYSA-N,Clc1cc(ccc1)C(O)CNC(Cc1ccc(OCC(O)=O)cc1)C,C15H12N2O,363.841,3.5420,9,329.25,0,170.6002,1,2-[4-[2-[[2-(3-chlorophenyl)-2-hydroxy-ethyl]amino]propyl]phenoxy]acetic acid
"InChI=1S/C14H18N2O/c1-16-6-4-10(5-7-16)13-9-15-14-3-2-11(17)8-12(13)14/h2-3,8-10,15,17H,4-7H2,1H3",WKNFADCGOAHBPG-UHFFFAOYSA-N,Oc1cc2c([nH]cc2C2CCN(CC2)C)cc1,C4H4KNO4S,230.31099,2.3620,1,224.38,0,128.32826,0,3-(1-methyl-4-piperidyl)-1<I>H</I>-indol-5-ol
"InChI=1S/C20H25BrN4O6/c1-30-14-8-11(7-13-10-24-20(23)25-18(13)22)9-15(17(14)21)31-6-2-3-12(19(28)29)4-5-16(26)27/h8-10,12H,2-7H2,1H3,(H,26,27)(H,28,29)(H4,22,23,24,25)/p-1",SZAVCZNFKJSWRN-UHFFFAOYSA-M,Brc1c(OCCCC(CCC(=O)[O-])C(=O)[O-])cc(cc1OC)Cc1c[nH+]c(nc1N)N,C7H6O3,496.33798,2.7240,12,390.50,0,382.08801,1,"2-[3-[2-bromo-5-[(2,4-diaminopyrimidin-1-ium-5-yl)methyl]-3-methoxy-phenoxy]propyl]pentanedioate"
"InChI=1S/C20H25BrN4O6/c1-30-14-8-11(7-13-10-24-20(23)25-18(13)22)9-15(17(14)21)31-6-2-3-12(19(28)29)4-5-16(26)27/h8-10,12H,2-7H2,1H3,(H,26,27)(H,28,29)(H4,22,23,24,25)",SZAVCZNFKJSWRN-UHFFFAOYSA-N,Brc1c(OCCCC(CCC(O)=O)C(O)=O)cc(cc1OC)Cc1cnc(nc1N)N,C7H8N4O2,497.34598,2.1520,12,390.50,1,387.41684,0,"2-[3-[2-bromo-5-[(2,4-diaminopyrimidin-5-yl)methyl]-3-methoxy-phenoxy]propyl]pentanedioic acid"
"InChI=1S/C14H10BrN3O/c15-9-4-5-11-10(7-9)14(17-8-13(19)18-11)12-3-1-2-6-16-12/h1-7H,8H2,(H,18,19)",VMIYHDSEFNYJSL-UHFFFAOYSA-N,Brc1cc2c(NC(=O)CN=C2c2ncccc2)cc1,C8H10N4O2,316.15799,1.8470,1,251.25,0,102.43958,1,"7-bromo-5-(2-pyridyl)-1,3-dihydro-1,4-benzodiazepin-2-one"