InChI,Key,smiles,Formula,Weight,logP(o/w),b_rotN,vol,lip_violation,ASA_P,Natural,ChemicalName
"InChI=1S/C25H27N9O8S2/c1-3-32-8-9-33(21(39)20(32)38)24(42)27-15(12-4-6-14(35)7-5-12)18(36)26-16-19(37)34-17(23(40)41)13(10-43-22(16)34)11-44-25-28-29-30-31(25)2/h4-7,15-16,22,35H,3,8-11H2,1-2H3,(H,26, 36)(H,27,42)(H,40,41)",GCFBRXLSHGKWDP-UHFFFAOYSA-N,S1C2N(C(=O)C2NC(=O)C(NC(=O)N2CCN(CC)C(=O)C2=O)c2ccc(O)cc2)C(C(O)=O)=C(C1)CSc1nnnn1C,C8H14ClN5,645.67798,-1.6540,12,513.50,2,416.89703,0,"7-[[2-[(4-ethyl-2,3-dioxo-piperazine-1-carbonyl)amino]-2-(4-hydroxyphenyl)acetyl]amino]-3-[(1-methyltetrazol-5-yl)sulfanylmethyl]-8-oxo-5-thia-1-azabicyclo[4.2.0]oct-2-ene-2-carboxylic acid"
"InChI=1S/C16H17N5O7S2/c1-6(22)28-3-7-4-29-14-10(13(24)21(14)11(7)15(25)26)19-12(23)9(20-27-2)8-5-30-16(17)18-8/h5,10,14H,3-4H2,1-2H3,(H2,17,18)(H,19,23)(H,25,26)/p-1",GPRBEKHLDVQUJE-UHFFFAOYSA-M,s1cc(nc1N)C(=NOC)C(=O)NC1C2SCC(COC(=O)C)=C(N2C1=O)C(=O)[O-],C8H8O3,454.46399,-0.5240,9,357.13,1,392.51172,1,3-(acetoxymethyl)-7-[[(2<I>E</I>)-2-(2-aminothiazol-4-yl)-2-methoxyimino-acetyl]amino]-8-oxo-5-thia-1-azabicyclo[4.2.0]oct-2-ene-2-carboxylate
"InChI=1S/C16H17N5O7S2/c1-6(22)28-3-7-4-29-14-10(13(24)21(14)11(7)15(25)26)19-12(23)9(20-27-2)8-5-30-16(17)18-8/h5,10,14H,3-4H2,1-2H3,(H2,17,18)(H,19,23)(H,25,26)",GPRBEKHLDVQUJE-UHFFFAOYSA-N,s1cc(nc1N)C(=NOC)C(=O)NC1C2SCC(COC(=O)C)=C(N2C1=O)C(O)=O,C8H9NO2,455.47198,-0.6450,9,357.13,1,386.17172,1,3-(acetoxymethyl)-7-[[(2<I>E</I>)-2-(2-aminothiazol-4-yl)-2-methoxyimino-acetyl]amino]-8-oxo-5-thia-1-azabicyclo[4.2.0]oct-2-ene-2-carboxylic acid
"InChI=1S/C17H19N7O7S4/c1-23-16(20-21-22-23)33-4-6-3-32-15-17(31-2,5-24(15)8(6)12(29)30)19-10(26)14-34-13(35-14)7(9(18)25)11(27)28/h14-15H,3-5H2,1-2H3,(H2,18,25)(H,19,26)(H,27,28)(H,29,30)/b13-7-",HSEAHZMRSORSRS-QPEQYQDCSA-N,S1C(SC1=C(C(=O)N)C(O)=O)C(=O)NC1(OC)C2SCC(CSc3nnnn3C)=C(N2C1)C(O)=O,C9H10O3,561.64502,-0.1890,10,407.88,2,484.56238,0,"7-[[4-(2-amino-1-carboxy-2-oxo-ethylidene)-1,3-dithietane-2-carbonyl]amino]-7-methoxy-3-[(1-methyltetrazol-5-yl)sulfanylmethyl]-5-thia-1-azabicyclo[4.2.0]oct-2-ene-2-carboxylic acid"
"InChI=1S/C16H15N7O7S4/c1-22-16(19-20-21-22)32-3-4-2-31-11-6(10(26)23(11)7(4)13(29)30)18-9(25)15-33-14(34-15)5(8(17)24)12(27)28/h6,11,15H,2-3H2,1H3,(H2,17,24)(H,18,25)(H,27,28)(H,29,30)/b14-5-",IWXXAPTWGRVHQI-RZNTYIFUSA-N,S1C(SC1=C(C(=O)N)C(O)=O)C(=O)NC1C2SCC(CSc3nnnn3C)=C(N2C1=O)C(O)=O,C9H8O2,545.60199,-1.3400,9,396.75,2,558.28442,1,"7-[[4-(2-amino-1-carboxy-2-oxo-ethylidene)-1,3-dithietane-2-carbonyl]amino]-3-[(1-methyltetrazol-5-yl)sulfanylmethyl]-8-oxo-5-thia-1-azabicyclo[4.2.0]oct-2-ene-2-carboxylic acid"
"InChI=1S/C18H23N9O4S3/c1-25(2)3-4-26-18(22-23-24-26)34-7-9-6-32-15-12(14(29)27(15)13(9)16(30)31)21-11(28)5-10-8-33-17(19)20-10/h8,12,15H,3-7H2,1-2H3,(H2,19,20)(H,21,28)(H,30,31)",QYQDKDWGWDOFFU-UHFFFAOYSA-N,s1cc(nc1N)CC(=O)NC1C2SCC(CSc3nnnn3CCN(C)C)=C(N2C1=O)C(O)=O,C10H11ClO3,525.63898,-1.4910,11,415.63,2,415.43179,0,7-[[2-(2-aminothiazol-4-yl)acetyl]amino]-3-[[1-[2-(dimethylamino)ethyl]tetrazol-5-yl]sulfanylmethyl]-8-oxo-5-thia-1-azabicyclo[4.2.0]oct-2-ene-2-carboxylic acid
"InChI=1S/C27H37N9O7S3/c1-15(42-27(40)43-18-7-5-4-6-8-18)41-24(39)21-16(13-46-26-31-32-33-35(26)10-9-34(2)3)12-44-23-20(22(38)36(21)23)30-19(37)11-17-14-45-25(28)29-17/h14-15,18,20,23H,4-13H2,1-3H3,(H2 ,28,29)(H,30,37)",VVFDMWZLBPUKTD-UHFFFAOYSA-N,s1cc(nc1N)CC(=O)NC1C2SCC(CSc3nnnn3CCN(C)C)=C(N2C1=O)C(OC(OC(OC1CCCCC1)=O)C)=O,C10H11N3O3S,695.84698,1.4720,17,572.25,2,401.2735,1,1-(cyclohexoxycarbonyloxy)ethyl 7-[[2-(2-aminothiazol-4-yl)acetyl]amino]-3-[[1-[2-(dimethylamino)ethyl]tetrazol-5-yl]sulfanylmethyl]-8-oxo-5-thia-1-azabicyclo[4.2.0]oct-2-ene-2-carboxylate
"InChI=1S/C16H17N3O7S2/c1-25-16(18-10(20)5-9-3-2-4-27-9)13(23)19-11(12(21)22)8(6-26-15(17)24)7-28-14(16)19/h2-4,14H,5-7H2,1H3,(H2,17,24)(H,18,20)(H,21,22)/p-1",WZOZEZRFJCJXNZ-UHFFFAOYSA-M,s1cccc1CC(=O)NC1(OC)C2SCC(COC(=O)N)=C(N2C1=O)C(=O)[O-],C10H12O3,426.44998,0.4670,9,326.50,0,348.18646,1,3-(carbamoyloxymethyl)-7-methoxy-8-oxo-7-[[2-(2-thienyl)acetyl]amino]-5-thia-1-azabicyclo[4.2.0]oct-2-ene-2-carboxylate
"InChI=1S/C16H17N3O7S2/c1-25-16(18-10(20)5-9-3-2-4-27-9)13(23)19-11(12(21)22)8(6-26-15(17)24)7-28-14(16)19/h2-4,14H,5-7H2,1H3,(H2,17,24)(H,18,20)(H,21,22)",WZOZEZRFJCJXNZ-UHFFFAOYSA-N,s1cccc1CC(=O)NC1(OC)C2SCC(COC(=O)N)=C(N2C1=O)C(O)=O,C12H7Cl3O2,427.45801,0.3460,9,326.50,0,352.64996,0,3-(carbamoyloxymethyl)-7-methoxy-8-oxo-7-[[2-(2-thienyl)acetyl]amino]-5-thia-1-azabicyclo[4.2.0]oct-2-ene-2-carboxylic acid
"InChI=1S/C19H17N9O5S2/c1-33-24-11(14-23-19(20)35-25-14)15(29)22-12-16(30)28-13(18(31)32)9(8-34-17(12)28)7-26-5-6-27-10(26)3-2-4-21-27/h2-6,12,17H,7-8H2,1H3,(H3-,20,22,23,25,29,31,32)",QDUIJCOKQCCXQY-UHFFFAOYSA-N,s1nc(nc1N)C(=NOC)C(=O)NC1C2SCC(Cn3c4[n+](nccc4)cc3)=C(N2C1=O)C(=O)[O-],C13H10N2O3S,515.53497,0.4025,8,413.38,2,427.19119,1,"7-[[(2<I>E</I>)-2-(5-amino-1,2,4-thiadiazol-3-yl)-2-methoxyimino-acetyl]amino]-3-(imidazo[1,2-b]pyridazin-4-ium-1-ylmethyl)-8-oxo-5-thia-1-azabicyclo[4.2.0]oct-2-ene-2-carboxylate"
"InChI=1S/C19H17N9O5S2/c1-33-24-11(14-23-19(20)35-25-14)15(29)22-12-16(30)28-13(18(31)32)9(8-34-17(12)28)7-26-5-6-27-10(26)3-2-4-21-27/h2-6,12,17H,7-8H2,1H3,(H3-,20,22,23,25,29,31,32)/p+1",QDUIJCOKQCCXQY-UHFFFAOYSA-O,s1nc(nc1N)C(=NOC)C(=O)NC1C2SCC(Cn3c4[n+](nccc4)cc3)=C(N2C1=O)C(O)=O,C13H18O2,516.54297,0.2815,8,413.38,2,397.31717,0,"7-[[(2<I>E</I>)-2-(5-amino-1,2,4-thiadiazol-3-yl)-2-methoxyimino-acetyl]amino]-3-(imidazo[1,2-b]pyridazin-4-ium-1-ylmethyl)-8-oxo-5-thia-1-azabicyclo[4.2.0]oct-2-ene-2-carboxylic acid"
"InChI=1S/C28H28N6O9S2/c35-24(20(17-4-2-1-3-5-17)32-25(36)21-22(27(37)38)30-15-29-21)31-19-13-34-23(28(39)40)18(14-44-26(19)34)12-33-9-6-16(7-10-33)8-11-45(41,42)43/h1-7,9-10,15,19-20,26H,8,11-14H2,(H5 -,29,30,31,32,35,36,37,38,39,40,41,42,43)/p+1",DIQBZUQZBPZZOI-UHFFFAOYSA-O,S1C2N(CC2NC(=O)C(NC(=O)c2nc[nH]c2C(O)=O)c2ccccc2)C(C(O)=O)=C(C1)C[n+]1ccc(cc1)CCS(O)(=O)=O,C13H9Cl3N2O,657.70502,0.0920,14,528.25,3,450.84604,1,7-[[2-[(5-carboxy-1<I>H</I>-imidazole-4-carbonyl)amino]-2-phenyl-acetyl]amino]-3-[[4-(2-sulfoethyl)pyridin-1-ium-1-yl]methyl]-5-thia-1-azabicyclo[4.2.0]oct-2-ene-2-carboxylic acid
"InChI=1S/C25H24N8O7S2/c1-11-7-16(35)15(8-26-11)20(36)27-17(12-3-5-14(34)6-4-12)21(37)28-18-22(38)33-19(24(39)40)13(9-41-23(18)33)10-42-25-29-30-31-32(25)2/h3-8,17-18,23,34H,9-10H2,1-2H3,(H,26,35)(H,27 ,36)(H,28,37)(H,39,40)",PWAUCHMQEXVFJR-UHFFFAOYSA-N,S1C2N(C(=O)C2NC(=O)C(NC(=O)C2=CNC(=CC2=O)C)c2ccc(O)cc2)C(C(O)=O)=C(C1)CSc1nnnn1C,C14H12O3,612.64801,-0.8630,11,493.88,2,441.23996,1,7-[[2-(4-hydroxyphenyl)-2-[(6-methyl-4-oxo-1<I>H</I>-pyridine-3-carbonyl)amino]acetyl]amino]-3-[(1-methyltetrazol-5-yl)sulfanylmethyl]-8-oxo-5-thia-1-azabicyclo[4.2.0]oct-2-ene-2-carboxylic acid
"InChI=1S/C21H20N6O5S2/c1-32-25-14(11-8-34-21(22)23-11)17(28)24-15-18(29)27-16(20(30)31)13(9-33-19(15)27)26-7-3-5-10-4-2-6-12(10)26/h3,5,7-8,15,19H,2,4,6,9H2,1H3,(H3-,22,23,24,28,30,31)/p+1",WIRFJFZNKSGRES-UHFFFAOYSA-O,s1cc(nc1N)C(=NOC)C(=O)NC1C2SCC([n+]3c4CCCc4ccc3)=C(N2C1=O)C(O)=O,C15H12N2O,501.56799,1.4320,7,404.75,2,312.4454,0,"7-[[(2<I>E</I>)-2-(2-aminothiazol-4-yl)-2-methoxyimino-acetyl]amino]-3-(6,7-dihydro-5<I>H</I>-cyclopenta[b]pyridin-1-ium-1-yl)-8-oxo-5-thia-1-azabicyclo[4.2.0]oct-2-ene-2-carboxylic acid"
"InChI=1S/C22H29N5O9S2/c1-10(35-21(31)36-22(2,3)4)34-19(30)15-11(7-32-5)8-37-18-14(17(29)27(15)18)25-16(28)13(26-33-6)12-9-38-20(23)24-12/h9-10,14,18H,7-8H2,1-6H3,(H2,23,24)(H,25,28)",DRSKJDBYHROOBH-UHFFFAOYSA-N,s1cc(nc1N)C(=NOC)C(=O)NC1C2SCC(COC)=C(N2C1=O)C(OC(OC(OC(C)(C)C)=O)C)=O,C4H4KNO4S,571.63202,1.5720,14,462.50,2,362.11169,1,1-tert-butoxycarbonyloxyethyl 7-[[(2<I>E</I>)-2-(2-aminothiazol-4-yl)-2-methoxyimino-acetyl]amino]-3-(methoxymethyl)-8-oxo-5-thia-1-azabicyclo[4.2.0]oct-2-ene-2-carboxylate
"InChI=1S/C21H27N5O9S2/c1-9(2)33-21(30)35-10(3)34-19(29)15-11(6-31-4)7-36-18-14(17(28)26(15)18)24-16(27)13(25-32-5)12-8-37-20(22)23-12/h8-10,14,18H,6-7H2,1-5H3,(H2,22,23)(H,24,27)",LTINZAODLRIQIX-UHFFFAOYSA-N,s1cc(nc1N)C(=NOC)C(=O)NC1C2SCC(COC)=C(N2C1=O)C(OC(OC(OC(C)C)=O)C)=O,C7H6O3,557.60498,1.1650,14,453.25,2,348.39124,0,1-isopropoxycarbonyloxyethyl 7-[[(2<I>E</I>)-2-(2-aminothiazol-4-yl)-2-methoxyimino-acetyl]amino]-3-(methoxymethyl)-8-oxo-5-thia-1-azabicyclo[4.2.0]oct-2-ene-2-carboxylate
"InChI=1S/C18H19N3O5S/c1-2-3-10-8-27-17-13(16(24)21(17)14(10)18(25)26)20-15(23)12(19)9-4-6-11(22)7-5-9/h2-7,12-13,17,22H,8,19H2,1H3,(H,20,23)(H,25,26)",WDLWHQDACQUCJR-UHFFFAOYSA-N,S1C2N(C(=O)C2NC(=O)C(N)c2ccc(O)cc2)C(C(O)=O)=C(C1)C=CC,C7H8N4O2,389.43201,0.6140,6,330.00,0,309.53214,1,7-[[2-amino-2-(4-hydroxyphenyl)acetyl]amino]-8-oxo-3-[(<I>E</I>)-prop-1-enyl]-5-thia-1-azabicyclo[4.2.0]oct-2-ene-2-carboxylic acid
"InChI=1S/C16H19N3O5S/c1-24-9-7-25-15-11(14(21)19(15)12(9)16(22)23)18-13(20)10(17)8-5-3-2-4-6-8/h2-3,6,10-11,15H,4-5,7,17H2,1H3,(H,18,20)(H,22,23)",RDMOROXKXONCAL-UHFFFAOYSA-N,S1C2N(C(=O)C2NC(=O)C(N)C=2CC=CCC=2)C(C(O)=O)=C(OC)C1,C8H10N4O2,365.41,-0.5540,6,304.00,0,342.5322,1,"7-[(2-amino-2-cyclohexa-1,4-dien-1-yl-acetyl)amino]-3-methoxy-8-oxo-5-thia-1-azabicyclo[4.2.0]oct-2-ene-2-carboxylic acid"
"InChI=1S/C22H20N4O8S2/c23-18(27)13-6-8-25(9-7-13)10-14-11-35-21-15(20(29)26(21)16(14)22(30)31)24-19(28)17(36(32,33)34)12-4-2-1-3-5-12/h1-9,15,17,21H,10-11H2,(H4-,23,24,27,28,30,31,32,33,34)/p-1",SYLKGLMBLAAGSC-UHFFFAOYSA-M,S1C2N(C(=O)C2NC(=O)C(S(=O)(=O)[O-])c2ccccc2)C(C(=O)[O-])=C(C1)C[n+]1ccc(cc1)C(=O)N,C8H14ClN5,531.54602,0.2100,9,419.75,2,413.30884,0,3-[(4-carbamoylpyridin-1-ium-1-yl)methyl]-8-oxo-7-[(2-phenyl-2-sulfonato-acetyl)amino]-5-thia-1-azabicyclo[4.2.0]oct-2-ene-2-carboxylate
"InChI=1S/C22H20N4O8S2/c23-18(27)13-6-8-25(9-7-13)10-14-11-35-21-15(20(29)26(21)16(14)22(30)31)24-19(28)17(36(32,33)34)12-4-2-1-3-5-12/h1-9,15,17,21H,10-11H2,(H4-,23,24,27,28,30,31,32,33,34)/p+1",SYLKGLMBLAAGSC-UHFFFAOYSA-O,S1C2N(C(=O)C2NC(=O)C(S(O)(=O)=O)c2ccccc2)C(C(O)=O)=C(C1)C[n+]1ccc(cc1)C(=O)N,C8H8O3,533.56201,0.1390,9,419.75,2,423.44907,1,3-[(4-carbamoylpyridin-1-ium-1-yl)methyl]-8-oxo-7-[(2-phenyl-2-sulfo-acetyl)amino]-5-thia-1-azabicyclo[4.2.0]oct-2-ene-2-carboxylic acid
"InChI=1S/C22H22N6O7S2/c1-22(2,20(33)34)35-26-13(12-10-37-21(23)24-12)16(29)25-14-17(30)28-15(19(31)32)11(9-36-18(14)28)8-27-6-4-3-5-7-27/h3-7,10,14,18H,8-9H2,1-2H3,(H4-,23,24,25,29,31,32,33,34)",ORFOPKXBNMVMKC-UHFFFAOYSA-N,s1cc(nc1N)C(=NOC(C(O)=O)(C)C)C(=O)NC1C2SCC(C[n+]3ccccc3)=C(N2C1=O)C(=O)[O-],C8H9NO2,546.58502,1.2240,10,443.63,2,380.92773,0,7-[[(2<I>E</I>)-2-(2-aminothiazol-4-yl)-2-(1-carboxy-1-methyl-ethoxy)imino-acetyl]amino]-8-oxo-3-(pyridin-1-ium-1-ylmethyl)-5-thia-1-azabicyclo[4.2.0]oct-2-ene-2-carboxylate
"InChI=1S/C22H22N6O7S2/c1-22(2,20(33)34)35-26-13(12-10-37-21(23)24-12)16(29)25-14-17(30)28-15(19(31)32)11(9-36-18(14)28)8-27-6-4-3-5-7-27/h3-7,10,14,18H,8-9H2,1-2H3,(H4-,23,24,25,29,31,32,33,34)/p+1",ORFOPKXBNMVMKC-UHFFFAOYSA-O,s1cc(nc1N)C(=NOC(C(O)=O)(C)C)C(=O)NC1C2SCC(C[n+]3ccccc3)=C(N2C1=O)C(O)=O,C9H10O3,547.59302,1.1030,10,443.63,2,343.7439,1,7-[[(2<I>E</I>)-2-(2-aminothiazol-4-yl)-2-(1-carboxy-1-methyl-ethoxy)imino-acetyl]amino]-8-oxo-3-(pyridin-1-ium-1-ylmethyl)-5-thia-1-azabicyclo[4.2.0]oct-2-ene-2-carboxylic acid
"InChI=1S/C22H27N9O7S2/c1-10-26-29-30(27-10)6-11-7-39-18-14(25-16(32)13(28-36-5)12-8-40-21(23)24-12)17(33)31(18)15(11)19(34)37-9-38-20(35)22(2,3)4/h8,14,18H,6-7,9H2,1-5H3,(H2,23,24)(H,25,32)",UIYAXIPXULMHAI-UHFFFAOYSA-N,s1cc(nc1N)C(=NOC)C(=O)NC1C2SCC(Cn3nc(nn3)C)=C(N2C1=O)C(OCOC(=O)C(C)(C)C)=O,C9H8O2,593.646,-0.2200,13,480.38,2,373.99979,1,"2,2-dimethylpropanoyloxymethyl 7-[[(2<I>E</I>)-2-(2-aminothiazol-4-yl)-2-methoxyimino-acetyl]amino]-3-[(5-methyltetrazol-2-yl)methyl]-8-oxo-5-thia-1-azabicyclo[4.2.0]oct-2-ene-2-carboxylate"
"InChI=1S/C13H12N8O4S3/c22-7(1-20-4-14-18-19-20)16-8-10(23)21-9(12(24)25)6(2-26-11(8)21)3-27-13-17-15-5-28-13/h4-5,8,11H,1-3H2,(H,16,22)(H,24,25)",DZMVCVMFETWNIU-UHFFFAOYSA-N,s1cnnc1SCC=1CSC2N(C(=O)C2NC(=O)Cn2nnnc2)C=1C(O)=O,C10H11ClO3,440.48901,-1.3480,8,325.38,1,382.14844,0,"8-oxo-7-[[2-(tetrazol-1-yl)acetyl]amino]-3-(1,3,4-thiadiazol-2-ylsulfanylmethyl)-5-thia-1-azabicyclo[4.2.0]oct-2-ene-2-carboxylic acid"
"InChI=1S/C15H14N4O6S2/c16-15-17-7(5-27-15)6(1-2-9(20)21)11(22)18-10-12(23)19-8(14(24)25)3-4-26-13(10)19/h1,3,5,10,13H,2,4H2,(H2,16,17)(H,18,22)(H,20,21)(H,24,25)",UNJFKXSSGBWRBZ-UHFFFAOYSA-N,s1cc(nc1N)C(=CCC(O)=O)C(=O)NC1C2SCC=C(N2C1=O)C(O)=O,C10H11N3O3S,410.431,-0.6120,7,317.38,0,415.32373,1,7-[[(<I>E</I>)-2-(2-aminothiazol-4-yl)-4-carboxy-but-2-enoyl]amino]-8-oxo-5-thia-1-azabicyclo[4.2.0]oct-2-ene-2-carboxylic acid
"InChI=1S/C13H13N5O5S2/c1-23-17-7(5-4-25-13(14)15-5)9(19)16-8-10(20)18-6(12(21)22)2-3-24-11(8)18/h2,4,8,11H,3H2,1H3,(H2,14,15)(H,16,19)(H,21,22)",NNULBSISHYWZJU-UHFFFAOYSA-N,s1cc(nc1N)C(=NOC)C(=O)NC1C2SCC=C(N2C1=O)C(O)=O,C10H12O3,383.409,-0.5230,6,297.00,0,374.3627,0,7-[[(2<I>E</I>)-2-(2-aminothiazol-4-yl)-2-methoxyimino-acetyl]amino]-8-oxo-5-thia-1-azabicyclo[4.2.0]oct-2-ene-2-carboxylic acid
"InChI=1S/C18H18N8O7S3/c1-25-18(22-12(28)13(29)23-25)36-4-6-3-34-15-9(14(30)26(15)10(6)16(31)32)21-11(27)8(24-33-2)7-5-35-17(19)20-7/h5,9,15H,3-4H2,1-2H3,(H2,19,20)(H,21,27)(H,23,29)(H,31,32)/p-2",VAAUVRVFOQPIGI-UHFFFAOYSA-L,s1cc(nc1N)C(=NOC)C(=O)NC1C2SCC(CSC3=NC(=O)C([O-])=NN3C)=C(N2C1=O)C(=O)[O-],C12H7Cl3O2,552.573,0.8780,9,420.63,2,533.35162,1,"7-[[(2<I>E</I>)-2-(2-aminothiazol-4-yl)-2-methoxyimino-acetyl]amino]-3-[(2-methyl-6-oxido-5-oxo-1,2,4-triazin-3-yl)sulfanylmethyl]-8-oxo-5-thia-1-azabicyclo[4.2.0]oct-2-ene-2-carboxylate"
"InChI=1S/C18H18N8O7S3/c1-25-18(22-12(28)13(29)23-25)36-4-6-3-34-15-9(14(30)26(15)10(6)16(31)32)21-11(27)8(24-33-2)7-5-35-17(19)20-7/h5,9,15H,3-4H2,1-2H3,(H2,19,20)(H,21,27)(H,23,29)(H,31,32)",VAAUVRVFOQPIGI-UHFFFAOYSA-N,s1cc(nc1N)C(=NOC)C(=O)NC1C2SCC(CSC3=NC(=O)C(=O)NN3C)=C(N2C1=O)C(O)=O,C13H10N2O3S,554.58899,-1.1620,9,420.63,2,540.44,1,"7-[[(2<I>E</I>)-2-(2-aminothiazol-4-yl)-2-methoxyimino-acetyl]amino]-3-[(2-methyl-5,6-dioxo-1<I>H</I>-1,2,4-triazin-3-yl)sulfanylmethyl]-8-oxo-5-thia-1-azabicyclo[4.2.0]oct-2-ene-2-carboxylic acid"
"InChI=1S/C16H16N4O8S/c1-26-19-9(8-3-2-4-27-8)12(21)18-10-13(22)20-11(15(23)24)7(5-28-16(17)25)6-29-14(10)20/h2-4,10,14H,5-6H2,1H3,(H2,17,25)(H,18,21)(H,23,24)/p-1",JFPVXVDWJQMJEE-UHFFFAOYSA-M,S1C2N(C(=O)C2NC(=O)C(=NOC)c2occc2)C(C(=O)[O-])=C(C1)COC(=O)N,C13H18O2,423.38199,-0.7900,9,341.75,1,362.26163,0,3-(carbamoyloxymethyl)-7-[[(2<I>E</I>)-2-(2-furyl)-2-methoxyimino-acetyl]amino]-8-oxo-5-thia-1-azabicyclo[4.2.0]oct-2-ene-2-carboxylate
"InChI=1S/C16H16N4O8S/c1-26-19-9(8-3-2-4-27-8)12(21)18-10-13(22)20-11(15(23)24)7(5-28-16(17)25)6-29-14(10)20/h2-4,10,14H,5-6H2,1H3,(H2,17,25)(H,18,21)(H,23,24)",JFPVXVDWJQMJEE-UHFFFAOYSA-N,S1C2N(C(=O)C2NC(=O)C(=NOC)c2occc2)C(C(O)=O)=C(C1)COC(=O)N,C13H9Cl3N2O,424.38998,-0.9110,9,341.75,1,384.04117,1,3-(carbamoyloxymethyl)-7-[[(2<I>E</I>)-2-(2-furyl)-2-methoxyimino-acetyl]amino]-8-oxo-5-thia-1-azabicyclo[4.2.0]oct-2-ene-2-carboxylic acid
"InChI=1S/C20H22N4O10S/c1-9(25)33-10(2)34-19(28)15-12(7-32-20(21)29)8-35-18-14(17(27)24(15)18)22-16(26)13(23-30-3)11-4-5-31-6-11/h4-6,10,14,18H,7-8H2,1-3H3,(H2,21,29)(H,22,26)",PZMXOYCEXZYRTD-UHFFFAOYSA-N,S1C2N(C(=O)C2NC(=O)C(=NOC)c2ccoc2)C(C(OC(OC(=O)C)C)=O)=C(C1)COC(=O)N,C14H12O3,510.47998,-0.0930,13,419.25,2,381.43051,0,1-acetoxyethyl 3-(carbamoyloxymethyl)-7-[[(2<I>E</I>)-2-(3-furyl)-2-methoxyimino-acetyl]amino]-8-oxo-5-thia-1-azabicyclo[4.2.0]oct-2-ene-2-carboxylate
"InChI=1S/C28H36O4/c1-24-8-9-25(2,23(31)32)16-22(24)28(5)13-11-26(3)18-15-20(30)19(29)14-17(18)6-7-21(26)27(28,4)12-10-24/h6-7,14-15,22,29H,8-13,16H2,1-5H3,(H,31,32)",FXLVCCDIUNLGKU-UHFFFAOYSA-N,OC1=CC=2C(=CC1=O)C1(C(=CC=2)C2(CCC3(C(CC(CC3)(C(O)=O)C)C2(CC1)C)C)C)C,C15H12N2O,436.59198,5.9970,1,350.25,1,177.56242,1,"10-hydroxy-2,4<I>a</I>,6<I>a</I>,6<I>a</I>,14<I>a</I>-pentamethyl-11-oxo-1,3,4,5,6,13,14,14<I>b</I>-octahydropicene-2-carboxylic acid"
"InChI=1S/C17H14F3N3O2S/c1-11-2-4-12(5-3-11)15-10-16(17(18,19)20)22-23(15)13-6-8-14(9-7-13)26(21,24)25/h2-10H,1H3,(H2,21,24,25)",RZEKVGVHFLEQIL-UHFFFAOYSA-N,S(=O)(=O)(N)c1ccc(-n2nc(cc2-c2ccc(cc2)C)C(F)(F)F)cc1,C4H4KNO4S,381.37799,3.1168,4,302.63,0,249.45671,1,4-[5-(p-tolyl)-3-(trifluoromethyl)pyrazol-1-yl]benzenesulfonamide
"InChI=1S/C20H33N3O4/c1-7-23(8-2)19(26)22-15-9-10-18(17(11-15)14(3)24)27-13-16(25)12-21-20(4,5)6/h9-11,16,21,25H,7-8,12-13H2,1-6H3,(H,22,26)",JOATXPAWOHTVSZ-UHFFFAOYSA-N,O(CC(O)CNC(C)(C)C)c1ccc(NC(=O)N(CC)CC)cc1C(=O)C,C7H6O3,379.50101,1.8100,12,358.63,0,134.06464,0,"3-[3-acetyl-4-[3-(tert-butylamino)-2-hydroxy-propoxy]phenyl]-1,1-diethyl-urea"
"InChI=1S/C28H38N2O4/c1-5-17-16-30-9-7-19-13-27(33-3)28(34-4)15-22(19)24(30)11-20(17)10-23-21-14-26(32-2)25(31)12-18(21)6-8-29-23/h12-15,17,20,23-24,29,31H,5-11,16H2,1-4H3",DTGZHCFJNDAHEN-UHFFFAOYSA-N,O(C)c1cc2C3N(CC(CC)C(C3)CC3NCCc4c3cc(OC)c(O)c4)CCc2cc1OC,C7H8N4O2,466.62198,4.9227,6,438.38,0,177.7614,1,"1-[(3-ethyl-9,10-dimethoxy-2,3,4,6,7,11<I>b</I>-hexahydro-1<I>H</I>-benzo[a]quinolizin-2-yl)methyl]-7-methoxy-1,2,3,4-tetrahydroisoquinolin-6-ol"
"InChI=1S/C16H17N3O4S/c1-8-7-24-15-11(14(21)19(15)12(8)16(22)23)18-13(20)10(17)9-5-3-2-4-6-9/h2-6,10-11,15H,7,17H2,1H3,(H,18,20)(H,22,23)",ZAIPMKNFIOOWCQ-UHFFFAOYSA-N,S1C2N(C(=O)C2NC(=O)C(N)c2ccccc2)C(C(O)=O)=C(C1)C,C8H10N4O2,347.39499,0.2780,5,293.50,0,253.42632,0,7-[(2-amino-2-phenyl-acetyl)amino]-3-methyl-8-oxo-5-thia-1-azabicyclo[4.2.0]oct-2-ene-2-carboxylic acid
"InChI=1S/C14H16N2O4S2/c1-8-7-22-13(16-12(8)14(19)20)10(6-17)15-11(18)5-9-3-2-4-21-9/h2-4,6,10,13,16H,5,7H2,1H3,(H,15,18)(H,19,20)",SFVACKBZMIZHCK-UHFFFAOYSA-N,S1CC(C)=C(NC1C(NC(=O)Cc1sccc1)C=O)C(O)=O,C8H14ClN5,340.42401,1.0830,7,276.00,0,202.31587,1,"5-methyl-2-[2-oxo-1-[[2-(2-thienyl)acetyl]amino]ethyl]-3,6-dihydro-2<I>H</I>-1,3-thiazine-4-carboxylic acid"
"InChI=1S/C16H21N3O8S/c1-7(20)27-5-8-6-28-14-11(13(22)19(14)12(8)16(25)26)18-10(21)4-2-3-9(17)15(23)24/h9,11,14H,2-6,17H2,1H3,(H,18,21)(H,23,24)(H,25,26)/p-1",HOKIDJSKDBPKTQ-UHFFFAOYSA-M,S1C2N(C(=O)C2NC(=O)CCCC(N)C(O)=O)C(C(=O)[O-])=C(C1)COC(=O)C,C8H8O3,414.41501,-3.5417,11,332.63,1,391.24127,1,3-(acetoxymethyl)-7-[(5-amino-5-carboxy-pentanoyl)amino]-8-oxo-5-thia-1-azabicyclo[4.2.0]oct-2-ene-2-carboxylate
"InChI=1S/C16H21N3O8S/c1-7(20)27-5-8-6-28-14-11(13(22)19(14)12(8)16(25)26)18-10(21)4-2-3-9(17)15(23)24/h9,11,14H,2-6,17H2,1H3,(H,18,21)(H,23,24)(H,25,26)",HOKIDJSKDBPKTQ-UHFFFAOYSA-N,S1C2N(C(=O)C2NC(=O)CCCC(N)C(O)=O)C(C(O)=O)=C(C1)COC(=O)C,C8H9NO2,415.423,-3.6627,11,332.63,1,390.70569,1,3-(acetoxymethyl)-7-[(5-amino-5-carboxy-pentanoyl)amino]-8-oxo-5-thia-1-azabicyclo[4.2.0]oct-2-ene-2-carboxylic acid
"InChI=1S/C16H16N2O6S2/c1-8(19)24-6-9-7-26-15-12(14(21)18(15)13(9)16(22)23)17-11(20)5-10-3-2-4-25-10/h2-4,12,15H,5-7H2,1H3,(H,17,20)(H,22,23)/p-1",XIURVHNZVLADCM-UHFFFAOYSA-M,s1cccc1CC(=O)NC1C2SCC(COC(=O)C)=C(N2C1=O)C(=O)[O-],C9H10O3,395.436,0.5810,8,318.63,0,270.16486,0,3-(acetoxymethyl)-8-oxo-7-[[2-(2-thienyl)acetyl]amino]-5-thia-1-azabicyclo[4.2.0]oct-2-ene-2-carboxylate
"InChI=1S/C7H10BNO3S/c10-7(9-5-8(11)12)4-6-2-1-3-13-6/h1-3,11-12H,4-5H2,(H,9,10)",VXAPSUDMBNWYNC-UHFFFAOYSA-N,s1cccc1CC(=O)NCB(O)O,C9H8O2,199.03799,-0.0900,5,169.38,0,148.13678,1,[[2-(2-thienyl)acetyl]amino]methylboronic acid
"InChI=1S/C17H17N3O6S2/c1-9(21)26-6-10-7-28-16-13(15(23)20(16)14(10)17(24)25)19-12(22)8-27-11-2-4-18-5-3-11/h2-5,13,16H,6-8H2,1H3,(H,19,22)(H,24,25)/p-1",UQLLWWBDSUHNEB-UHFFFAOYSA-M,S1C2N(C(=O)C2NC(=O)CSc2ccncc2)C(C(=O)[O-])=C(C1)COC(=O)C,C10H11ClO3,422.46201,0.1510,9,343.50,0,303.22552,1,3-(acetoxymethyl)-8-oxo-7-[[2-(4-pyridylsulfanyl)acetyl]amino]-5-thia-1-azabicyclo[4.2.0]oct-2-ene-2-carboxylate
"InChI=1S/C16H19N3O4S/c1-8-7-24-15-11(14(21)19(15)12(8)16(22)23)18-13(20)10(17)9-5-3-2-4-6-9/h2-3,6,10-11,15H,4-5,7,17H2,1H3,(H,18,20)(H,22,23)",RDLPVSKMFDYCOR-UHFFFAOYSA-N,S1C2N(C(=O)C2NC(=O)C(N)C=2CC=CCC=2)C(C(O)=O)=C(C1)C,C10H11N3O3S,349.41098,-0.4800,5,293.50,0,307.10269,0,"7-[(2-amino-2-cyclohexa-1,4-dien-1-yl-acetyl)amino]-3-methyl-8-oxo-5-thia-1-azabicyclo[4.2.0]oct-2-ene-2-carboxylic acid"