InChI,Key,smiles,Formula,Weight,logP(o/w),b_rotN,vol,lip_violation,ASA_P,Natural,ChemicalName
"InChI=1S/C19H24Cl2N2O4S/c1-23(10-9-14-3-8-18(20)19(21)11-14)12-16(24)13-27-17-6-4-15(5-7-17)22-28(2,25)26/h3-8,11,16,22,24H,9-10,12-13H2,1-2H3/p+1",BQBSHJUQVIWEFM-UHFFFAOYSA-O,Clc1cc(ccc1Cl)CC[NH+](CC(O)COc1ccc(NS(=O)(=O)C)cc1)C,C10H11N3O3S,448.39099,3.3560,10,369.00,0,167.99733,1,"2-(3,4-dichlorophenyl)ethyl-[2-hydroxy-3-[4-(methanesulfonamido)phenoxy]propyl]-methyl-ammonium"
"InChI=1S/C19H24Cl2N2O4S/c1-23(10-9-14-3-8-18(20)19(21)11-14)12-16(24)13-27-17-6-4-15(5-7-17)22-28(2,25)26/h3-8,11,16,22,24H,9-10,12-13H2,1-2H3",BQBSHJUQVIWEFM-UHFFFAOYSA-N,Clc1cc(ccc1Cl)CCN(CC(O)COc1ccc(NS(=O)(=O)C)cc1)C,C10H12O3,447.383,3.3560,10,369.00,0,141.85736,1,"<I>N</I>-[4-[3-[2-(3,4-dichlorophenyl)ethyl-methyl-amino]-2-hydroxy-propoxy]phenyl]methanesulfonamide"
"InChI=1S/C10H17N/c11-10-4-7-1-8(5-10)3-9(2-7)6-10/h7-9H,1-6,11H2",DKNWSYNQZKUICI-UHFFFAOYSA-N,NC12CC3CC(C1)CC(C2)C3,C12H7Cl3O2,151.25299,2.0180,0,123.00,0,52.566452,0,adamantan-1-amine
"InChI=1S/C28H40Cl2N4O2/c1-5-33(6-2,21-23-13-9-11-15-25(23)29)19-17-31-27(35)28(36)32-18-20-34(7-3,8-4)22-24-14-10-12-16-26(24)30/h9-16H,5-8,17-22H2,1-4H3/p+2",OMHBPUNFVFNHJK-UHFFFAOYSA-P,Clc1ccccc1C[N+](CCNC(=O)C(=O)NCC[N+](Cc1ccccc1Cl)(CC)CC)(CC)CC,C13H10N2O3S,537.57599,3.7760,17,476.00,2,109.49189,1,(2-chlorophenyl)methyl-[2-[[2-[2-[(2-chlorophenyl)methyl-diethyl-ammonio]ethylamino]-2-oxo-acetyl]amino]ethyl]-diethyl-ammonium
"InChI=1S/C13H18Br2N2O/c14-9-5-8(13(16)12(15)6-9)7-17-10-1-3-11(18)4-2-10/h5-6,10-11,17-18H,1-4,7,16H2",JBDGDEWWOUBZPM-UHFFFAOYSA-N,Brc1cc(Br)cc(CNC2CCC(O)CC2)c1N,C13H18O2,378.108,3.6450,3,259.63,0,88.78405,0,"4-[(2-amino-3,5-dibromo-phenyl)methylamino]cyclohexanol"
"InChI=1S/C22H28N4O4/c27-13-11-23-7-9-25-17-5-6-18(26-10-8-24-12-14-28)20-19(17)21(29)15-3-1-2-4-16(15)22(20)30/h1-6,23-28H,7-14H2",FFGSXKJJVBXWCY-UHFFFAOYSA-N,O=C1c2c(C(=O)c3c1cccc3)c(NCCNCCO)ccc2NCCNCCO,C14H12O3,412.48999,0.0840,12,381.50,1,247.62083,1,"1,4-bis[2-(2-hydroxyethylamino)ethylamino]anthracene-9,10-dione"
"InChI=1S/C11H11N3O/c1-15-11-8-14(13-7-10(11)12)9-5-3-2-4-6-9/h2-8,12H,1H3/p+1",VCNLTEFYCZNVBO-UHFFFAOYSA-O,O(C)c1c[n+](ncc1N)-c1ccccc1,C15H12N2O,202.237,1.3680,2,199.63,0,116.90675,0,5-methoxy-1-phenyl-pyridazin-1-ium-4-amine
"InChI=1S/C15H13NO3/c16-14-11(9-13(17)18)7-4-8-12(14)15(19)10-5-2-1-3-6-10/h1-8H,9,16H2,(H,17,18)",SOYCMDCMZDHQFP-UHFFFAOYSA-N,OC(=O)Cc1cccc(C(=O)c2ccccc2)c1N,C4H4KNO4S,255.27299,2.5100,4,239.13,0,150.37477,1,2-(2-amino-3-benzoyl-phenyl)acetic acid
"InChI=1S/C18H16N2O3/c1-2-20-11-15(18(22)23)16(21)14-9-8-13(19-17(14)20)10-12-6-4-3-5-7-12/h3-9,11H,2,10H2,1H3,(H,22,23)",WHHHJDGNBVQNAU-UHFFFAOYSA-N,O=C1c2ccc(nc2N(C=C1C(O)=O)CC)Cc1ccccc1,C7H6O3,308.33701,2.5100,4,291.38,0,153.30064,0,"7-benzyl-1-ethyl-4-oxo-1,8-naphthyridine-3-carboxylic acid"
"InChI=1S/C10H10N2O3/c11-9(12)7-3-1-6(2-4-7)5-8(13)10(14)15/h1-4H,5H2,(H3,11,12)(H,14,15)",ZXBYWYQEQQBMBT-UHFFFAOYSA-N,OC(=O)C(=O)Cc1ccc(cc1)C(N)=N,C7H8N4O2,206.20099,0.6130,4,187.13,0,257.1749,1,3-(4-carbamimidoylphenyl)-2-oxo-propanoic acid
"InChI=1S/C23H39N8O17P3/c1-23(2,18(35)21(36)27-7-5-14(33)26-6-3-4-13(24)32)9-45-51(42,43)48-50(40,41)44-8-12-17(47-49(37,38)39)16(34)22(46-12)31-11-30-15-19(25)28-10-29-20(15)31/h10-12,16-18,22,34-35H, 3-9H2,1-2H3,(H2,24,32)(H,26,33)(H,27,36)(H,40,41)(H,42,",RMWCNISNSABOOL-UHFFFAOYSA-N,P(OCC1OC(n2c3ncnc(N)c3nc2)C(O)C1OP(O)(O)=O)(OP(OCC(C(O)C(=O)NCCC(=O)NCCCC(=O)N)(C)C)(O)=O)(O)=O,C8H10N4O2,792.526,-6.2629,22,556.00,3,678.93506,1,"[[4-[[3-[(4-amino-4-oxo-butyl)amino]-3-oxo-propyl]amino]-3-hydroxy-2,2-dimethyl-4-oxo-butoxy]-hydroxy-phosphoryl] [5-(6-aminopurin-9-yl)-4-hydroxy-3-phosphonooxy-tetrahydrofuran-2-yl]methyl hydrogen p hosphate"
"InChI=1S/C11H9I3N2O4/c1-3(17)15-9-6(12)5(11(19)20)7(13)10(8(9)14)16-4(2)18/h1-2H3,(H,15,17)(H,16,18)(H,19,20)",YVPYQUNUQOZFHG-UHFFFAOYSA-N,Ic1c(C(O)=O)c(I)c(NC(=O)C)c(I)c1NC(=O)C,C8H14ClN5,613.91498,3.7230,5,266.75,1,176.91617,0,"3,5-diacetamido-2,4,6-triiodo-benzoic acid"
"InChI=1S/C5H15N2O3PS/c6-2-1-3-7-4-5-12-11(8,9)10/h7H,1-6H2,(H2,8,9,10)",JKOQGQFVAUAYPM-UHFFFAOYSA-N,S(P(O)(O)=O)CCNCCCN,C8H8O3,214.226,-1.3460,7,154.00,0,262.7088,1,2-(3-aminopropylamino)ethylsulfanylphosphonic acid
"InChI=1S/C22H43N5O13/c23-2-1-8(29)20(36)27-7-3-6(25)18(39-22-16(34)15(33)13(31)9(4-24)37-22)17(35)19(7)40-21-14(32)11(26)12(30)10(5-28)38-21/h6-19,21-22,28-35H,1-5,23-26H2,(H,27,36)",LKCWBDHBTVXHDL-UHFFFAOYSA-N,O1C(CN)C(O)C(O)C(O)C1OC1C(O)C(OC2OC(CO)C(O)C(N)C2O)C(NC(=O)C(O)CCN)CC1N,C8H9NO2,585.60797,-8.2090,11,437.63,3,448.50864,0,"4-amino-<I>N</I>-[5-amino-2-[4-amino-3,5-dihydroxy-6-(hydroxymethyl)tetrahydropyran-2-yl]oxy-4-[6-(aminomethyl)-3,4,5-trihydroxy-tetrahydropyran-2-yl]oxy-3-hydroxy-cyclohexyl]-2-hydroxy-butanamide"
"InChI=1S/C21H26N2O/c1-23-16-11-12-17(23)14-18(13-16)24-21(15-7-3-2-4-8-15)19-9-5-6-10-20(19)22/h2-10,16-18,21H,11-14,22H2,1H3",KZFDKINRISJFCO-UHFFFAOYSA-N,O(C(c1ccccc1N)c1ccccc1)C1CC2N(C(C1)CC2)C,C9H10O3,322.452,4.5350,4,300.13,0,66.965172,1,2-[(8-methyl-8-azabicyclo[3.2.1]octan-3-yl)oxy-phenyl-methyl]aniline
"InChI=1S/C13H21N3O5S/c14-5-7-20-9-10-21-8-6-16-13(17)11-1-3-12(4-2-11)22(15,18)19/h1-4H,5-10,14H2,(H,16,17)(H2,15,18,19)",QGGYVKRXFQLYQD-UHFFFAOYSA-N,S(=O)(=O)(N)c1ccc(cc1)C(=O)NCCOCCOCCN,C9H8O2,331.39301,-1.6953,11,275.13,0,317.69797,1,<I>N</I>-[2-[2-(2-aminoethoxy)ethoxy]ethyl]-4-sulfamoyl-benzamide
"InChI=1S/C13H16N2O2/c1-2-13(8-7-11(16)15-12(13)17)9-3-5-10(14)6-4-9/h3-6H,2,7-8,14H2,1H3,(H,15,16,17)",ROBVIMPUHSLWNV-UHFFFAOYSA-N,O=C1NC(=O)CCC1(CC)c1ccc(N)cc1,C10H11ClO3,232.28299,1.9550,2,198.63,0,163.54085,0,"3-(4-aminophenyl)-3-ethyl-piperidine-2,6-dione"
"InChI=1S/CH6N4/c2-1(3)5-4/h4H2,(H4,2,3,5)",HAMNKKUPIHEESI-UHFFFAOYSA-N,N(N)C(N)=N,C10H11N3O3S,74.086998,-1.2720,1,59.25,1,221.45595,1,1-aminoguanidine
"InChI=1S/C13H17N/c14-13-8-4-3-6-11(13)9-10-5-1-2-7-12(10)13/h1-2,5,7,11H,3-4,6,8-9,14H2",NUOQOLUXBAFBAG-UHFFFAOYSA-N,NC12C(CCCC1)Cc1c2cccc1,C10H12O3,187.286,2.9580,0,182.00,0,45.163364,0,"1,2,3,4,9,9<I>a</I>-hexahydrofluoren-4<I>a</I>-amine"
"InChI=1S/C9H10N2O3/c10-7-3-1-6(2-4-7)9(14)11-5-8(12)13/h1-4H,5,10H2,(H,11,14)(H,12,13)",HSMNQINEKMPTIC-UHFFFAOYSA-N,OC(=O)CNC(=O)c1ccc(N)cc1,C12H7Cl3O2,194.19,0.0380,4,174.00,0,215.49037,1,2-[(4-aminobenzoyl)amino]acetic acid
"InChI=1S/C4H9NO3/c5-2-3(6)1-4(7)8/h3,6H,1-2,5H2,(H,7,8)",YQGDEPYYFWUPGO-UHFFFAOYSA-N,OC(CC(O)=O)CN,C13H10N2O3S,119.12,-1.6060,3,95.50,0,183.32909,1,4-amino-3-hydroxy-butanoic acid
"InChI=1S/C15H24N4O6S/c16-11-14(20)18-5-7-24-9-10-25-8-6-19-15(21)12-1-3-13(4-2-12)26(17,22)23/h1-4H,5-11,16H2,(H,18,20)(H,19,21)(H2,17,22,23)",OIKKGRHOXPAPMW-UHFFFAOYSA-N,S(=O)(=O)(N)c1ccc(cc1)C(=O)NCCOCCOCCNC(=O)CN,C13H18O2,388.44501,-2.5683,14,319.63,1,354.70377,0,<I>N</I>-[2-[2-[2-[(2-aminoacetyl)amino]ethoxy]ethoxy]ethyl]-4-sulfamoyl-benzamide
"InChI=1S/C11H13N3O/c1-8-10(12)11(15)14(13(8)2)9-6-4-3-5-7-9/h3-7H,12H2,1-2H3",RLFWWDJHLFCNIJ-UHFFFAOYSA-N,O=C1N(N(C)C(C)=C1N)c1ccccc1,C13H9Cl3N2O,203.245,0.7580,1,197.38,0,110.87804,1,"4-amino-1,5-dimethyl-2-phenyl-pyrazol-3-one"
"InChI=1S/C10H16N6O10P2/c11-10-14-7-4(8(19)15-10)13-2-16(7)9-6(18)5(17)3(25-9)1-24-28(22,23)26-27(12,20)21/h2-3,5-6,9,17-18H,1H2,(H,22,23)(H3,12,20,21)(H3,11,14,15,19)",ZGPDMUBRWRJAQQ-UHFFFAOYSA-N,P(OP(OCC1OC(n2c3NC(=NC(=O)c3nc2)N)C(O)C1O)(O)=O)(O)(=O)N,C14H12O3,442.21799,-4.4580,6,290.25,2,489.72369,0,"[[5-(2-amino-6-oxo-3<I>H</I>-purin-9-yl)-3,4-dihydroxy-tetrahydrofuran-2-yl]methoxy-hydroxy-phosphoryl]oxyphosphonamidic acid"
"InChI=1S/C7H8N4O2/c1-10-5-4(8-3-9-5)6(12)11(2)7(10)13/h3H,1-2H3,(H,8,9)",ZFXYFBGIUFBOJW-UHFFFAOYSA-N,O=C1N(C)C(=O)N(c2nc[nH]c12)C,C15H12N2O,180.16699,-1.1590,0,157.13,0,180.17546,1,"1,3-dimethyl-7<I>H</I>-purine-2,6-dione"
"InChI=1S/C19H20N8O5/c20-15-14-16(27-19(21)26-15)23-8-11(24-14)7-22-10-3-1-9(2-4-10)17(30)25-12(18(31)32)5-6-13(28)29/h1-4,8,12,22H,5-7H2,(H,25,30)(H,28,29)(H,31,32)(H4,20,21,23,26,27)",TVZGACDUOSZQKY-UHFFFAOYSA-N,OC(=O)C(NC(=O)c1ccc(NCc2nc3c(nc(nc3N)N)nc2)cc1)CCC(O)=O,C4H4KNO4S,440.41998,-0.7084,10,376.88,2,453.1568,1,"2-[[4-[(2,4-diaminopteridin-6-yl)methylamino]benzoyl]amino]pentanedioic acid"
"InChI=1S/C3H4N2S/c4-3-5-1-2-6-3/h1-2H,(H2,4,5)",RAIPHJJURHTUIC-UHFFFAOYSA-N,s1ccnc1N,C7H6O3,100.145,0.2150,0,80.75,0,98.463074,0,thiazol-2-amine
"InChI=1S/C25H29I2NO3/c1-4-7-11-22-23(18-10-8-9-12-21(18)31-22)24(29)17-15-19(26)25(20(27)16-17)30-14-13-28(5-2)6-3/h8-10,12,15-16H,4-7,11,13-14H2,1-3H3/p+1",IYIKLHRQXLHMJQ-UHFFFAOYSA-O,Ic1cc(cc(I)c1OCC[NH+](CC)CC)C(=O)c1c2c(oc1CCCC)cccc2,C7H8N4O2,646.32697,8.1880,11,441.88,2,63.549816,1,"2-[4-(2-butylbenzofuran-3-carbonyl)-2,6-diiodo-phenoxy]ethyl-diethyl-ammonium"
"InChI=1S/C25H29I2NO3/c1-4-7-11-22-23(18-10-8-9-12-21(18)31-22)24(29)17-15-19(26)25(20(27)16-17)30-14-13-28(5-2)6-3/h8-10,12,15-16H,4-7,11,13-14H2,1-3H3",IYIKLHRQXLHMJQ-UHFFFAOYSA-N,Ic1cc(cc(I)c1OCCN(CC)CC)C(=O)c1c2c(oc1CCCC)cccc2,C8H10N4O2,645.31897,8.1880,11,441.88,2,60.167809,0,"(2-butylbenzofuran-3-yl)-[4-[2-(diethylamino)ethoxy]-3,5-diiodo-phenyl]methanone"
"InChI=1S/C14H27NO6/c1-14(2)20-12-11(18-7-5-6-15(3)4)10(9(17)8-16)19-13(12)21-14/h9-13,16-17H,5-8H2,1-4H3",YXBQLONCIPUQKO-UHFFFAOYSA-N,O1C2OC(OC2C(OCCCN(C)C)C1C(O)CO)(C)C,C8H14ClN5,305.371,0.3540,7,266.13,0,174.74448,1,"1-[6-[3-(dimethylamino)propoxy]-2,2-dimethyl-3<I>a</I>,5,6,6<I>a</I>-tetrahydrofuro[2,3-d][1,3]dioxol-5-yl]ethane-1,2-diol"
"InChI=1S/C17H27N3O4S/c1-4-20-8-6-7-12(20)11-19-17(21)13-9-16(25(22,23)5-2)14(18)10-15(13)24-3/h9-10,12H,4-8,11,18H2,1-3H3,(H,19,21)",NTJOBXMMWNYJFB-UHFFFAOYSA-N,S(=O)(=O)(CC)c1cc(C(=O)NCC2N(CCC2)CC)c(OC)cc1N,C8H8O3,369.48599,1.1410,8,318.75,0,185.34221,1,4-amino-<I>N</I>-[(1-ethylpyrrolidin-2-yl)methyl]-5-ethylsulfonyl-2-methoxy-benzamide
"InChI=1S/C20H23N/c1-21(2)15-7-12-20-18-10-5-3-8-16(18)13-14-17-9-4-6-11-19(17)20/h3-6,8-12H,7,13-15H2,1-2H3",KRMDCWKBEZIMAB-UHFFFAOYSA-N,N(CCC=C1c2c(CCc3c1cccc3)cccc2)(C)C,C8H9NO2,277.41098,4.5570,3,291.25,0,48.943867,0,"3-(5,6-dihydrodibenzo[1,2-<I>d</I>:2',1'-<I>f</I>][7]annulen-11-ylidene)-<I>N</I>,<I>N</I>-dimethyl-propan-1-amine"
"InChI=1S/C16H14N2O4/c1-7(2)8-3-4-12-9(5-8)13(19)10-6-11(16(20)21)14(17)18-15(10)22-12/h3-7H,1-2H3,(H2,17,18)(H,20,21)",SGRYPYWGNKJSDL-UHFFFAOYSA-N,O1c2c(cc(cc2)C(C)C)C(=O)c2cc(C(O)=O)c(nc12)N,C9H10O3,298.298,2.4590,2,268.50,0,216.69856,1,"2-amino-7-isopropyl-5-oxo-chromeno[2,3-b]pyridine-3-carboxylic acid"
"InChI=1S/C20H25ClN2O5/c1-4-28-20(25)18-15(11-27-10-9-22)23-12(2)16(19(24)26-3)17(18)13-7-5-6-8-14(13)21/h5-8,17,23H,4,9-11,22H2,1-3H3",HTIQEAQVCYTUBX-UHFFFAOYSA-N,Clc1ccccc1C1C(C(OCC)=O)=C(NC(C)=C1C(OC)=O)COCCN,C9H8O2,408.88199,2.4460,10,345.63,0,189.04286,0,"<I>O</I>3-ethyl <I>O</I>5-methyl 2-(2-aminoethoxymethyl)-4-(2-chlorophenyl)-6-methyl-1,4-dihydropyridine-3,5-dicarboxylate"
"InChI=1S/C11H18N2O3/c1-4-11(6-5-7(2)3)8(14)12-10(16)13-9(11)15/h7H,4-6H2,1-3H3,(H2,12,13,14,15,16)/p-1",VIROVYVQCGLCII-UHFFFAOYSA-M,O=C1NC([O-])=NC(=O)C1(CCC(C)C)CC,C10H11ClO3,225.26799,2.9310,4,189.88,0,164.20526,1,"5-ethyl-5-isopentyl-4,6-dioxo-1<I>H</I>-pyrimidin-2-olate"
"InChI=1S/C11H18N2O3/c1-4-11(6-5-7(2)3)8(14)12-10(16)13-9(11)15/h7H,4-6H2,1-3H3,(H2,12,13,14,15,16)",VIROVYVQCGLCII-UHFFFAOYSA-N,OC=1NC(=O)C(CCC(C)C)(CC)C(=O)N=1,C10H11N3O3S,226.276,2.8100,4,189.88,0,169.79277,1,"5-ethyl-2-hydroxy-5-isopentyl-1<I>H</I>-pyrimidine-4,6-dione"
"InChI=1S/C20H22ClN3O/c1-3-24(4-2)13-14-11-16(6-8-20(14)25)23-18-9-10-22-19-12-15(21)5-7-17(18)19/h5-12,25H,3-4,13H2,1-2H3,(H,22,23)",OVCDSSHSILBFBN-UHFFFAOYSA-N,Clc1cc2nccc(Nc3cc(CN(CC)CC)c(O)cc3)c2cc1,C10H12O3,355.86899,4.5750,6,335.63,1,72.742287,0,4-[(7-chloro-4-quinolyl)amino]-2-(diethylaminomethyl)phenol
"InChI=1S/C20H22ClN3O/c1-3-24(4-2)13-14-5-7-16(12-20(14)25)23-18-9-10-22-19-11-15(21)6-8-17(18)19/h5-12,25H,3-4,13H2,1-2H3,(H,22,23)",QGFYFOHMBDMGBZ-UHFFFAOYSA-N,Clc1cc2nccc(Nc3cc(O)c(cc3)CN(CC)CC)c2cc1,C12H7Cl3O2,355.86899,4.5750,6,334.50,1,81.564735,1,5-[(7-chloro-4-quinolyl)amino]-2-(diethylaminomethyl)phenol
"InChI=1S/C35H46N6O8S/c1-5-35(2,3)49-34(48)41-27(18-22-20-37-24-14-10-9-13-23(22)24)32(46)38-25(15-16-50-4)31(45)40-28(19-29(42)43)33(47)39-26(30(36)44)17-21-11-7-6-8-12-21/h6-14,20,25-28,37H,5,15-19H2 ,1-4H3,(H2,36,44)(H,38,46)(H,39,47)(H,40,45)(H,41,48)(H",CAVZBWFUMSXZFB-UHFFFAOYSA-N,S(CCC(NC(=O)C(NC(OC(CC)(C)C)=O)Cc1c2c([nH]c1)cccc2)C(=O)NC(CC(O)=O)C(=O)NC(Cc1ccccc1)C(=O)N)C,C13H10N2O3S,710.85297,2.8310,24,612.50,3,244.50481,0,"4-[(2-amino-1-benzyl-2-oxo-ethyl)amino]-3-[[2-[[2-(1,1-dimethylpropoxycarbonylamino)-3-(1H-indol-3-yl)propanoyl]amino]-4-methylsulfanyl-butanoyl]amino]-4-oxo-butanoic acid"
"InChI=1S/C21H35NO/c1-7-21(5,6)20-10-8-19(9-11-20)12-16(2)13-22-14-17(3)23-18(4)15-22/h8-11,16-18H,7,12-15H2,1-6H3",MQHLMHIZUIDKOO-UHFFFAOYSA-N,O1C(CN(CC1C)CC(Cc1ccc(cc1)C(CC)(C)C)C)C,C13H18O2,317.517,5.2740,6,320.00,0,23.480497,1,"4-[3-[4-(1,1-dimethylpropyl)phenyl]-2-methyl-propyl]-2,6-dimethyl-morpholine"
"InChI=1S/C18H24N2O5S/c1-13-7-8-14(11-18(13)26(19,22)23)15(21)12-20-9-10-25-17-6-4-3-5-16(17)24-2/h3-8,11,15,20-21H,9-10,12H2,1-2H3,(H2,19,22,23)",LVEXHFZHOIWIIP-UHFFFAOYSA-N,S(=O)(=O)(N)c1cc(ccc1C)C(O)CNCCOc1ccccc1OC,C13H9Cl3N2O,380.465,1.1527,9,328.00,0,200.39532,1,5-[1-hydroxy-2-[2-(2-methoxyphenoxy)ethylamino]ethyl]-2-methyl-benzenesulfonamide
"InChI=1S/C17H16ClN3O/c18-12-5-6-15-13(11-12)17(21-9-7-19-8-10-21)20-14-3-1-2-4-16(14)22-15/h1-6,11,19H,7-10H2",QWGDMFLQWFTERH-UHFFFAOYSA-N,Clc1cc2c(Oc3c(N=C2N2CCNCC2)cccc3)cc1,C14H12O3,313.78799,3.0350,1,282.88,0,67.50515,0,"8-chloro-6-piperazin-1-yl-benzo[b][1,4]benzoxazepine"
"InChI=1S/C16H19N3O5S/c1-16(2)11(15(23)24)19-13(22)10(14(19)25-16)18-12(21)9(17)7-3-5-8(20)6-4-7/h3-6,9-11,14,20H,17H2,1-2H3,(H,18,21)(H,23,24)",LSQZJLSUYDQPKJ-UHFFFAOYSA-N,S1C2N(C(C(O)=O)C1(C)C)C(=O)C2NC(=O)C(N)c1ccc(O)cc1,C15H12N2O,365.41,0.4340,5,293.63,0,284.99902,1,"6-[[2-amino-2-(4-hydroxyphenyl)acetyl]amino]-3,3-dimethyl-7-oxo-4-thia-1-azabicyclo[3.2.0]heptane-2-carboxylic acid"
"InChI=1S/C8H9NO5/c10-2-1-4-7(8(12)13)9-5(11)3-6(9)14-4/h1,6-7,10H,2-3H2,(H,12,13)",HZZVJAQRINQKSD-UHFFFAOYSA-N,O1C2N(C(C(O)=O)C1=CCO)C(=O)C2,C4H4KNO4S,199.162,-1.1930,2,161.63,0,228.03021,0,(3<I>Z</I>)-3-(2-hydroxyethylidene)-7-oxo-4-oxa-1-azabicyclo[3.2.0]heptane-2-carboxylic acid
"InChI=1S/C16H19N3O4S/c1-16(2)11(15(22)23)19-13(21)10(14(19)24-16)18-12(20)9(17)8-6-4-3-5-7-8/h3-7,9-11,14H,17H2,1-2H3,(H,18,20)(H,22,23)/p-1",AVKUERGKIZMTKX-UHFFFAOYSA-M,S1C2N(C(C(=O)[O-])C1(C)C)C(=O)C2NC(=O)C(N)c1ccccc1,C7H6O3,348.40298,0.8630,5,287.50,0,233.73782,1,"6-[(2-amino-2-phenyl-acetyl)amino]-3,3-dimethyl-7-oxo-4-thia-1-azabicyclo[3.2.0]heptane-2-carboxylate"
"InChI=1S/C16H19N3O4S/c1-16(2)11(15(22)23)19-13(21)10(14(19)24-16)18-12(20)9(17)8-6-4-3-5-7-8/h3-7,9-11,14H,17H2,1-2H3,(H,18,20)(H,22,23)",AVKUERGKIZMTKX-UHFFFAOYSA-N,S1C2N(C(C(O)=O)C1(C)C)C(=O)C2NC(=O)C(N)c1ccccc1,C7H8N4O2,349.41098,0.7420,5,287.50,0,214.74106,1,"6-[(2-amino-2-phenyl-acetyl)amino]-3,3-dimethyl-7-oxo-4-thia-1-azabicyclo[3.2.0]heptane-2-carboxylic acid"
"InChI=1S/C25H30N4O9S2/c1-24(2)17(29-20(32)16(21(29)39-24)27-19(31)15(26)12-8-6-5-7-9-12)22(33)37-11-38-23(34)18-25(3,4)40(35,36)14-10-13(30)28(14)18/h5-9,14-18,21H,10-11,26H2,1-4H3,(H,27,31)",OPYGFNJSCUDTBT-UHFFFAOYSA-N,S1C2N(C(C(OCOC(=O)C3N4C(S(=O)(=O)C3(C)C)CC4=O)=O)C1(C)C)C(=O)C2NC(=O)C(N)c1ccccc1,C8H10N4O2,594.66602,0.2850,10,462.88,2,312.47867,0,"(3,3-dimethyl-4,4,7-trioxo-4&lambda;<sup>6</sup>-thia-1-azabicyclo[3.2.0]heptane-2-carbonyl)oxymethyl 6-[(2-amino-2-phenyl-acetyl)amino]-3,3-dimethyl-7-oxo-4-thia-1-azabicyclo[3.2.0]heptane-2-carboxyl ate"
"InChI=1S/C20H21N3O7S/c1-4-28-20(25)30-13(2)29-18-14-9-5-6-10-15(14)31(26,27)23(3)17(18)19(24)22-16-11-7-8-12-21-16/h5-13H,4H2,1-3H3,(H,21,22,24)",LSNWBKACGXCGAJ-UHFFFAOYSA-N,S1(=O)(=O)N(C)C(C(=O)Nc2ncccc2)=C(OC(OC(OCC)=O)C)c2c1cccc2,C8H14ClN5,447.46799,2.2810,9,369.63,0,164.88426,1,"ethyl 1-[[2-methyl-1,1-dioxo-3-(2-pyridylcarbamoyl)-1&lambda;<sup>6</sup>,2-benzothiazin-4-yl]oxy]ethyl carbonate"
"InChI=1S/C25H35N3O6S/c1-18(2)15-28(35(31,32)22-10-8-20(26)9-11-22)16-24(29)23(14-19-6-4-3-5-7-19)27-25(30)34-21-12-13-33-17-21/h3-11,18,21,23-24,29H,12-17,26H2,1-2H3,(H,27,30)",YMARZQAQMVYCKC-UHFFFAOYSA-N,S(=O)(=O)(N(CC(C)C)CC(O)C(NC(OC1CCOC1)=O)Cc1ccccc1)c1ccc(N)cc1,C8H8O3,505.63599,2.3850,13,433.88,1,202.38271,0,tetrahydrofuran-3-yl <I>N</I>-[3-[(4-aminophenyl)sulfonyl-isobutyl-amino]-1-benzyl-2-hydroxy-propyl]carbamate
"InChI=1S/C14H19N4/c1-3-6-13-16-9-12(14(15)17-13)10-18-8-5-4-7-11(18)2/h4-5,7-9H,3,6,10H2,1-2H3,(H2,15,16,17)/q+1",IPZFPROOBOUEIG-UHFFFAOYSA-N,[n+]1(ccccc1C)Cc1cnc(nc1N)CCC,C8H9NO2,243.334,2.2090,4,245.50,0,113.20432,1,5-[(2-methylpyridin-1-ium-1-yl)methyl]-2-propyl-pyrimidin-4-amine
"InChI=1S/C21H19N3O3S/c1-27-20-13-14(24-28(2,25)26)11-12-19(20)23-21-15-7-3-5-9-17(15)22-18-10-6-4-8-16(18)21/h3-13,24H,1-2H3,(H,22,23)",XCPGHVQEEXUHNC-UHFFFAOYSA-N,S(=O)(=O)(Nc1cc(OC)c(Nc2c3c(nc4c2cccc4)cccc3)cc1)C,C9H10O3,393.46698,4.0060,5,343.25,0,158.49675,1,<I>N</I>-[4-(acridin-9-ylamino)-3-methoxy-phenyl]methanesulfonamide
"InChI=1S/C20H27NO11/c21-6-10(9-4-2-1-3-5-9)30-20-18(28)16(26)14(24)12(32-20)8-29-19-17(27)15(25)13(23)11(7-22)31-19/h1-5,10-20,22-28H,7-8H2",XUCIJNAGGSZNQT-UHFFFAOYSA-N,O1C(COC2OC(CO)C(O)C(O)C2O)C(O)C(O)C(O)C1OC(C#N)c1ccccc1,C9H8O2,457.43198,-2.8390,8,367.38,2,352.72968,0,"2-phenyl-2-[3,4,5-trihydroxy-6-[[3,4,5-trihydroxy-6-(hydroxymethyl)tetrahydropyran-2-yl]oxymethyl]tetrahydropyran-2-yl]oxy-acetonitrile"
"InChI=1S/C10H7Cl2N3O/c11-6-1-2-7-5(9(6)12)3-15-4-8(16)14-10(15)13-7/h1-2H,3-4H2,(H,13,14,16)",OTBXOEAOVRKTNQ-UHFFFAOYSA-N,Clc1c2CN3CC(=O)N=C3Nc2ccc1Cl,C10H11ClO3,256.09198,2.6580,0,202.75,0,129.66399,1,"6,7-dichloro-5,10-dihydro-3<I>H</I>-imidazo[2,1-b]quinazolin-2-one"
"InChI=1S/C20H37NO2/c1-2-3-4-5-6-7-8-9-10-11-12-13-14-15-16-17-20(23)21-18-19-22/h6-7,9-10,22H,2-5,8,11-19H2,1H3,(H,21,23)",KQXDGUVSAAQARU-UHFFFAOYSA-N,OCCNC(=O)CCCCCCCC=CCC=CCCCCC,C10H11N3O3S,323.521,4.4120,17,337.25,0,133.91942,0,"(9<I>E</I>,12<I>E</I>)-<I>N</I>-(2-hydroxyethyl)octadeca-9,12-dienamide"
"InChI=1S/C22H39NO2/c1-2-3-4-5-6-7-8-9-10-11-12-13-14-15-16-17-18-19-22(25)23-20-21-24/h6-7,9-10,12-13,24H,2-5,8,11,14-21H2,1H3,(H,23,25)",ULQWKETUACYZLI-UHFFFAOYSA-N,OCCNC(=O)CCCCCCC=CCC=CCC=CCCCCC,C10H12O3,349.55899,4.7020,18,368.25,1,172.92427,1,"(8<I>E</I>,11<I>E</I>,14<I>E</I>)-<I>N</I>-(2-hydroxyethyl)icosa-8,11,14-trienamide"
"InChI=1S/C22H37NO2/c1-2-3-4-5-6-7-8-9-10-11-12-13-14-15-16-17-18-19-22(25)23-20-21-24/h6-7,9-10,12-13,15-16,24H,2-5,8,11,14,17-21H2,1H3,(H,23,25)",LGEQQWMQCRIYKG-UHFFFAOYSA-N,OCCNC(=O)CCCC=CCC=CCC=CCC=CCCCCC,C12H7Cl3O2,347.543,4.1080,17,368.25,1,227.19745,1,"(5<I>E</I>,8<I>E</I>,11<I>E</I>,14<I>E</I>)-<I>N</I>-(2-hydroxyethyl)icosa-5,8,11,14-tetraenamide"
"InChI=1S/C24H41NO2/c1-2-3-4-5-6-7-8-9-10-11-12-13-14-15-16-17-18-19-20-21-24(27)25-22-23-26/h6-7,9-10,12-13,15-16,26H,2-5,8,11,14,17-23H2,1H3,(H,25,27)",FMVHVRYFQIXOAF-UHFFFAOYSA-N,OCCNC(=O)CCCCCC=CCC=CCC=CCC=CCCCCC,C13H10N2O3S,375.59698,4.9920,19,398.00,1,199.13673,0,"(7<I>E</I>,10<I>E</I>,13<I>E</I>,16<I>E</I>)-<I>N</I>-(2-hydroxyethyl)docosa-7,10,13,16-tetraenamide"
"InChI=1S/C17H19N5/c1-16(2,9-18)14-5-13(8-22-12-20-11-21-22)6-15(7-14)17(3,4)10-19/h5-7,11-12H,8H2,1-4H3",YBBLVLTVTVSKRW-UHFFFAOYSA-N,n1cn(nc1)Cc1cc(cc(c1)C(C#N)(C)C)C(C#N)(C)C,C13H18O2,293.37399,2.9190,6,285.63,0,193.63019,1,"2-[3-(1-cyano-1-methyl-ethyl)-5-(1,2,4-triazol-1-ylmethyl)phenyl]-2-methyl-propanenitrile"
"InChI=1S/C8H6ClNO8S2/c9-7-4-1-2-10(19(12,13)14)5(4)3-6(8(7)11)18-20(15,16)17/h1-3,11H,(H,12,13,14)(H,15,16,17)/p-2",JJMPGKDTFRHSIM-UHFFFAOYSA-L,Clc1c2c(n(S(=O)(=O)[O-])cc2)cc(OS(=O)(=O)[O-])c1O,C13H9Cl3N2O,341.70401,0.3350,3,213.25,0,288.20361,0,4-chloro-5-hydroxy-6-sulfonatooxy-indole-1-sulfonate
"InChI=1S/C8H6ClNO8S2/c9-7-4-1-2-10(19(12,13)14)5(4)3-6(8(7)11)18-20(15,16)17/h1-3,11H,(H,12,13,14)(H,15,16,17)",JJMPGKDTFRHSIM-UHFFFAOYSA-N,Clc1c2c(n(S(O)(=O)=O)cc2)cc(OS(O)(=O)=O)c1O,C14H12O3,343.72,0.4350,3,213.25,0,301.34573,1,4-chloro-5-hydroxy-6-sulfooxy-indole-1-sulfonic acid