InChI,Key,smiles,Formula,Weight,logP(o/w),b_rotN,vol,lip_violation,ASA_P,Natural,ChemicalName
"InChI=1S/C8H15NO3/c1-5(2)4-7(8(11)12)9-6(3)10/h5,7H,4H2,1-3H3,(H,9,10)(H,11,12)",WXNXCEHXYPACJF-UHFFFAOYSA-N,OC(=O)C(NC(=O)C)CC(C)C,C13H18O2,173.21199,0.9240,5,153.00,0,127.64682,1,2-acetamido-4-methyl-pentanoic acid
"InChI=1S/C8H15NO4/c1-6(10)13-7(5-8(11)12)9(2,3)4/h7H,5H2,1-4H3/p+1",GGSYOGJSNRQKCY-UHFFFAOYSA-O,O(C([N+](C)(C)C)CC(O)=O)C(=O)C,C13H9Cl3N2O,190.21899,-0.4680,5,157.63,0,161.21899,1,(1-acetoxy-2-carboxy-ethyl)-trimethyl-ammonium
"InChI=1S/C43H66O14/c1-21-38(48)33(54-24(4)44)19-37(51-21)57-40-23(3)53-36(18-32(40)46)56-39-22(2)52-35(17-31(39)45)55-27-9-12-41(5)26(16-27)7-8-30-29(41)10-13-42(6)28(11-14-43(30,42)49)25-15-34(47)50- 20-25/h15,21-23,26-33,35-40,45-46,48-49H,7-14,16-20H2,1",HPMZBILYSWLILX-UHFFFAOYSA-N,O1C(C)C(OC2OC(C)C(O)C(OC(=O)C)C2)C(O)CC1OC1C(OC(OC2CC3CCC4C(CCC5(C)C(CCC45O)C4=CC(OC4)=O)C3(CC2)C)CC1O)C,C14H12O3,806.987,4.9280,9,649.88,2,275.53537,0,"[3-hydroxy-6-[4-hydroxy-6-[4-hydroxy-6-[[14-hydroxy-10,13-dimethyl-17-(5-oxo-2<I>H</I>-furan-3-yl)-1,2,3,4,5,6,7,8,9,11,12,15,16,17-tetradecahydrocyclopenta[a]phenanthren-3-yl]oxy]-2-methyl-tetrahydro pyran-3-yl]oxy-2-methyl-tetrahydropyran-3-yl]oxy-2-methyl-tetrahydropyran-4-yl] acetate"
"InChI=1S/C46H73NO17/c1-25(2)21-36(52)62-44-29(6)57-38(24-46(44,10)54)63-40-28(5)58-45(43(61-32(9)51)39(40)47(11)12)64-41-33(19-20-48)22-26(3)34(59-30(7)49)18-16-14-15-17-27(4)56-37(53)23-35(42(41)55-1 3)60-31(8)50/h14-16,18,20,25-29,33-35,38-45,54H,17,19,2",BWDIUZRYHTUVBC-UHFFFAOYSA-N,O1C(C)C(OC2OC(C)C(OC(=O)CC(C)C)C(O)(C2)C)C(N(C)C)C(OC(=O)C)C1OC1C(OC)C(OC(=O)C)CC(OC(CC=CC=CC(OC(=O)C)C(CC1CC=O)C)C)=O,C15H12N2O,912.07996,4.4422,18,717.13,2,236.56351,1,"[6-[5-acetoxy-6-[[(11<I>Z</I>,13<I>E</I>)-4,10-diacetoxy-5-methoxy-9,16-dimethyl-2-oxo-7-(2-oxoethyl)-1-oxacyclohexadeca-11,13-dien-6-yl]oxy]-4-(dimethylamino)-2-methyl-tetrahydropyran-3-yl]oxy-4-hydr oxy-2,4-dimethyl-tetrahydropyran-3-yl] 3-methylbutanoate"
"InChI=1S/C13H16N2O3/c1-3-11(10-7-5-4-6-8-10)12(17)15-13(18)14-9(2)16/h4-8,11H,3H2,1-2H3,(H2,14,15,16,17,18)",GBPZSCQLDXUGNO-UHFFFAOYSA-N,O=C(NC(=O)NC(=O)C)C(CC)c1ccccc1,C4H4KNO4S,248.282,1.7030,7,233.00,0,133.88078,0,<I>N</I>-(acetylcarbamoyl)-2-phenyl-butanamide
"InChI=1S/C11H13NO3/c1-8(13)12-10(11(14)15)7-9-5-3-2-4-6-9/h2-6,10H,7H2,1H3,(H,12,13)(H,14,15)",CBQJSKKFNMDLON-UHFFFAOYSA-N,OC(=O)C(NC(=O)C)Cc1ccccc1,C7H6O3,207.22899,1.0450,5,193.00,0,143.17273,1,2-acetamido-3-phenyl-propanoic acid
"InChI=1S/C47H78N2O16/c1-26-23-33(21-22-50)43(65-46-41(54)40(49(11)12)42(29(4)60-46)64-39-25-47(8,55)45(30(5)59-39)62-32(7)52)44(56-13)36(61-31(6)51)24-37(53)57-27(2)17-15-14-16-18-35(26)63-38-20-19-34 (48(9)10)28(3)58-38/h14-16,18,22,26-30,33-36,38-46,54-5",UEWVJVSNLOFCHN-UHFFFAOYSA-N,O1C(C)C(OC2OC(C)C(OC(=O)C)C(O)(C2)C)C(N(C)C)C(O)C1OC1C(OC)C(OC(=O)C)CC(OC(CC=CC=CC(OC2OC(C)C(N(C)C)CC2)C(CC1CC=O)C)C)=O,C7H8N4O2,927.13898,3.9575,15,747.13,2,315.53949,1,"[(11<I>Z</I>,13<I>E</I>)-6-[5-(5-acetoxy-4-hydroxy-4,6-dimethyl-tetrahydropyran-2-yl)oxy-4-(dimethylamino)-3-hydroxy-6-methyl-tetrahydropyran-2-yl]oxy-10-[5-(dimethylamino)-6-methyl-tetrahydropyran-2- yl]oxy-5-methoxy-9,16-dimethyl-2-oxo-7-(2-oxoethyl)-1-oxacyclohexadeca-11,13-dien-4-yl] acetate"
"InChI=1S/C13H14N2O3/c1-8(16)15-12(13(17)18)6-9-7-14-11-5-3-2-4-10(9)11/h2-5,7,12,14H,6H2,1H3,(H,15,16)(H,17,18)",DZTHIGRZJZPRDV-UHFFFAOYSA-N,OC(=O)C(NC(=O)C)Cc1c2c([nH]c1)cccc2,C8H10N4O2,246.26599,1.2460,5,222.00,0,186.58995,0,2-acetamido-3-(1H-indol-3-yl)propanoic acid
"InChI=1S/C13H15N3O2/c1-8(17)16-12(13(14)18)6-9-7-15-11-5-3-2-4-10(9)11/h2-5,7,12,15H,6H2,1H3,(H2,14,18)(H,16,17)",HNGIZKAMDMBRKJ-UHFFFAOYSA-N,O=C(N)C(NC(=O)C)Cc1c2c([nH]c1)cccc2,C8H14ClN5,245.282,0.5120,5,224.00,0,193.63449,1,2-acetamido-3-(1H-indol-3-yl)propanamide
"InChI=1S/C13H17NO4/c1-3-18-13(17)12(14-9(2)15)8-10-4-6-11(16)7-5-10/h4-7,12,16H,3,8H2,1-2H3,(H,14,15)",SKAWDTAMLOJQNK-UHFFFAOYSA-N,Oc1ccc(cc1)CC(NC(=O)C)C(OCC)=O,C8H8O3,251.282,1.3420,7,229.75,0,131.9082,0,ethyl 2-acetamido-3-(4-hydroxyphenyl)propanoate
"InChI=1S/C8H15NO3/c1-7(10)9-6-4-2-3-5-8(11)12/h2-6H2,1H3,(H,9,10)(H,11,12)",WDSCBUNMANHPFH-UHFFFAOYSA-N,OC(=O)CCCCCNC(=O)C,C8H9NO2,173.21199,0.4620,7,162.13,0,173.03258,1,6-acetamidohexanoic acid
"InChI=1S/C9H7N5O3/c15-8(9(16)17)10-6-3-1-2-5(4-6)7-11-13-14-12-7/h1-4H,(H,10,15)(H,16,17)(H,11,12,13,14)",VWQZJJZGISNFOE-UHFFFAOYSA-N,OC(=O)C(=O)Nc1cc(ccc1)-c1nn[nH]n1,C9H10O3,233.187,-0.0370,4,195.13,0,281.20007,1,2-oxo-2-[3-(2<I>H</I>-tetrazol-5-yl)anilino]acetic acid
"InChI=1S/C5H7ClN2O3/c6-3-1-2(11-8-3)4(7)5(9)10/h2,4H,1,7H2,(H,9,10)",QAWIHIJWNYOLBE-UHFFFAOYSA-N,ClC1=NOC(C1)C(N)C(O)=O,C9H8O2,178.575,-2.4477,2,130.75,0,261.14883,0,"2-amino-2-(3-chloro-4,5-dihydroisoxazol-5-yl)acetic acid"
"InChI=1S/C42H53NO15/c1-8-42(51)17-28(33-22(35(42)41(50)52-7)14-23-34(38(33)49)37(48)32-21(36(23)47)10-9-11-26(32)45)56-30-15-24(43(5)6)39(19(3)54-30)58-31-16-27(46)40(20(4)55-31)57-29-13-12-25(44)18(2 )53-29/h9-11,14,18-20,24,27-31,35,39-40,45-46,49,51H,8,",USZYSDMBJDPRIF-UHFFFAOYSA-N,O1C(C)C(OC2OC(C)C(OC3OC(C)C(=O)CC3)C(O)C2)C(N(C)C)CC1OC1CC(O)(CC)C(c2c1c(O)c1c(c2)C(=O)c2c(C1=O)c(O)ccc2)C(OC)=O,C10H11ClO3,811.87799,4.1620,10,670.13,2,299.71887,1,"methyl 4-[4-(dimethylamino)-5-[4-hydroxy-6-methyl-5-(6-methyl-5-oxo-tetrahydropyran-2-yl)oxy-tetrahydropyran-2-yl]oxy-6-methyl-tetrahydropyran-2-yl]oxy-2-ethyl-2,5,7-trihydroxy-6,11-dioxo-3,4-dihydro- 1<I>H</I>-tetracene-1-carboxylate"
"InChI=1S/C10H20NO4/c1-8(15-9(2)12)10(13)14-7-6-11(3,4)5/h8H,6-7H2,1-5H3/q+1",SRZGFCNCQUMTCP-UHFFFAOYSA-N,O(C(C(OCC[N+](C)(C)C)=O)C)C(=O)C,C10H11N3O3S,218.27299,-0.2763,7,200.88,0,134.88263,0,2-(2-acetoxypropanoyloxy)ethyl-trimethyl-ammonium
"InChI=1S/C22H28N6O14P2/c1-10(29)11-3-2-4-27(5-11)21-17(32)15(30)12(40-21)6-38-43(34,35)42-44(36,37)39-7-13-16(31)18(33)22(41-13)28-9-26-14-19(23)24-8-25-20(14)28/h2-5,8-9,12-13,15-18,21-22,30-33H,6-7H 2,1H3,(H3-,23,24,25,34,35,36,37)",KPVQNXLUPNWQHM-UHFFFAOYSA-N,P(OCC1OC([n+]2cc(ccc2)C(=O)C)C(O)C1O)(OP(OCC1OC(n2c3ncnc(N)c3nc2)C(O)C1O)(O)=O)(=O)[O-],C10H12O3,662.44202,-3.8349,11,488.38,3,526.58759,1,"[5-(3-acetylpyridin-1-ium-1-yl)-3,4-dihydroxy-tetrahydrofuran-2-yl]methyl [[5-(6-aminopurin-9-yl)-3,4-dihydroxy-tetrahydrofuran-2-yl]methoxy-hydroxy-phosphoryl] phosphate"
"InChI=1S/C22H28N6O14P2/c1-10(29)11-3-2-4-27(5-11)21-17(32)15(30)12(40-21)6-38-43(34,35)42-44(36,37)39-7-13-16(31)18(33)22(41-13)28-9-26-14-19(23)24-8-25-20(14)28/h2-5,8-9,12-13,15-18,21-22,30-33H,6-7H 2,1H3,(H3-,23,24,25,34,35,36,37)/p+1",KPVQNXLUPNWQHM-UHFFFAOYSA-O,P(OCC1OC(n2c3ncnc(N)c3nc2)C(O)C1O)(OP(OCC1OC([n+]2cc(ccc2)C(=O)C)C(O)C1O)(O)=O)(O)=O,C12H7Cl3O2,663.45001,-3.7849,11,488.38,3,481.09402,1,"[[5-(3-acetylpyridin-1-ium-1-yl)-3,4-dihydroxy-tetrahydrofuran-2-yl]methoxy-hydroxy-phosphoryl] [5-(6-aminopurin-9-yl)-3,4-dihydroxy-tetrahydrofuran-2-yl]methyl hydrogen phosphate"
"InChI=1S/C25H41NO/c1-2-3-4-5-6-7-8-9-10-11-12-13-14-15-16-17-18-19-25(27)26-23-22-24-20-21-24/h6-7,9-10,12-13,15-16,24H,2-5,8,11,14,17-23H2,1H3,(H,26,27)",KSLBVHPSPDQUBH-UHFFFAOYSA-N,O=C(NCCC1CC1)CCCC=CCC=CCC=CCC=CCCCCC,C13H18O2,371.60898,6.0630,18,406.88,1,152.93024,1,"(5<I>E</I>,8<I>E</I>,11<I>E</I>,14<I>E</I>)-<I>N</I>-(2-cyclopropylethyl)icosa-5,8,11,14-tetraenamide"
"InChI=1S/C14H13ClN4O/c15-10-3-7-12(8-4-10)19-14(20)18-11-5-1-9(2-6-11)13(16)17/h1-8H,(H3,16,17)(H2,18,19,20)",HQWKMDKTTCPCMQ-UHFFFAOYSA-N,Clc1ccc(NC(=O)Nc2ccc(cc2)C(N)=N)cc1,C13H9Cl3N2O,288.73801,2.4740,5,260.75,0,175.6256,0,1-(4-carbamimidoylphenyl)-3-(4-chlorophenyl)urea
"InChI=1S/C14H13N3/c1-17-13-7-11(15)4-2-9(13)6-10-3-5-12(16)8-14(10)17/h2-8H,1H3,(H3,15,16)/p+1",XSIOKTWDEOJMGG-UHFFFAOYSA-O,[n+]1(c2cc(N)ccc2cc2c1cc(N)cc2)C,C14H12O3,224.287,3.1940,0,223.13,0,156.79469,1,"10-methylacridin-10-ium-3,6-diamine"
"InChI=1S/C15H15N3O/c1-2-19-10-4-6-13-12(8-10)15(17)11-5-3-9(16)7-14(11)18-13/h3-8H,2,16H2,1H3,(H2,17,18)",CIKWKGFPFXJVGW-UHFFFAOYSA-N,O(CC)c1cc2c(nc3c(ccc(N)c3)c2N)cc1,C15H12N2O,253.30499,2.5650,2,245.13,0,152.54657,1,"7-ethoxyacridine-3,9-diamine"
"InChI=1S/C10H11NO3/c1-7(12)11-9-4-2-8(3-5-9)6-10(13)14/h2-5H,6H2,1H3,(H,11,12)(H,13,14)",MROJXXOCABQVEF-UHFFFAOYSA-N,OC(=O)Cc1ccc(NC(=O)C)cc1,C4H4KNO4S,193.202,0.9620,4,178.63,0,155.80937,0,2-(4-acetamidophenyl)acetic acid
InChI=1S/C62H86N12O16/c1-27(2)42-59(84)73-23-17-19-36(73)57(82)69(13)25-38(75)71(15)48(29(5)6)61(86)88-33(11)44(55(80)65-42)67-53(78)35-22-21-31(9)51-46(35)64-47-40(41(63)50(77)32(10)52(47)90-51)54(79 )68-45-34(12)89-62(87)49(30(7)8)72(16)39(76)26-70(14)58,RJURFGZVJUQBHK-UHFFFAOYSA-N,O1C(C)C(NC(=O)C=2C3=Nc4c(OC3=C(C)C(=O)C=2N)c(ccc4C(=O)NC2C(OC(=O)C(N(C)C(=O)CN(C)C(=O)C3N(CCC3)C(=O)C(NC2=O)C(C)C)C(C)C)C)C)C(=O)NC(C(C)C)C(=O)N2C(CCC2)C(=O)N(CC(=O)N(C)C(C(C)C)C1=O)C,C7H6O3,1255.438,1.2190,10,994.63,3,299.74551,1,"2-amino-<I>N</I>1,<I>N</I>9-bis(3,10-diisopropyl-7,11,14-trimethyl-2,5,9,12,15-pentaoxo-8-oxa-1,4,11,14-tetrazabicyclo[14.3.0]nonadecan-6-yl)-4,6-dimethyl-3-oxo-phenoxazine-1,9-dicarboxamide"
"InChI=1S/C19H35N3O5/c1-4-5-6-8-14(11-16(24)21-27)18(25)20-17(13(2)3)19(26)22-10-7-9-15(22)12-23/h13-15,17,23,27H,4-12H2,1-3H3,(H,20,25)(H,21,24)",XJLATMLVMSFZBN-UHFFFAOYSA-N,OCC1N(CCC1)C(=O)C(NC(=O)C(CCCCC)CC(=O)NO)C(C)C,C7H8N4O2,385.505,1.2740,14,334.25,0,177.89375,0,2-[2-(hydroxyamino)-2-oxo-ethyl]-<I>N</I>-[1-[2-(hydroxymethyl)pyrrolidine-1-carbonyl]-2-methyl-propyl]heptanamide
"InChI=1S/C8H11N5O3/c9-8-11-6-5(7(15)12-8)10-3-13(6)4-16-2-1-14/h3,14H,1-2,4H2,(H3,9,11,12,15)",MKUXAQIIEYXACX-UHFFFAOYSA-N,O=C1NC(=Nc2n(cnc12)COCCO)N,C8H14ClN5,225.20799,-1.5990,4,190.38,0,262.70584,1,2-amino-9-(2-hydroxyethoxymethyl)-1<I>H</I>-purin-6-one
"InChI=1S/C16H26N5O18P3/c17-13-7-14(19-3-18-13)21(4-20-7)15-12(39-42(31,32)33)9(5(1-22)34-15)36-16-8(24)11(38-41(28,29)30)10(6(2-23)35-16)37-40(25,26)27/h3-6,8-12,15-16,22-24H,1-2H2,(H2,17,18,19)(H2,25 ,26,27)(H2,28,29,30)(H2,31,32,33)",RENVITLQVBEFDT-UHFFFAOYSA-N,P(OC1C(OP(O)(O)=O)C(OC(OC2C(OP(O)(O)=O)C(OC2CO)n2c3ncnc(N)c3nc2)C1O)CO)(O)(O)=O,C8H8O3,669.323,-7.3925,11,418.25,3,633.26031,0,"[2-(6-aminopurin-9-yl)-4-[3-hydroxy-6-(hydroxymethyl)-4,5-diphosphonooxy-tetrahydropyran-2-yl]oxy-5-(hydroxymethyl)tetrahydrofuran-3-yl] dihydrogen phosphate"
"InChI=1S/C10H12N5O6P/c11-8-5-9(13-2-12-8)15(3-14-5)10-7-6(4(1-16)19-10)20-22(17,18)21-7/h2-4,6-7,10,16H,1H2,(H,17,18)(H2,11,12,13)",KMYWVDDIPVNLME-UHFFFAOYSA-N,P1(OC2C(O1)C(OC2CO)n1c2ncnc(N)c2nc1)(O)=O,C8H9NO2,329.20898,-2.4209,2,240.25,1,345.77213,1,"[4-(6-aminopurin-9-yl)-2-hydroxy-2-oxo-3<I>a</I>,4,6,6<I>a</I>-tetrahydrofuro[3,4-d][1,3,2]dioxaphosphol-6-yl]methanol"
"InChI=1S/C28H32N8O6/c29-9-10-30-21(38)11-16-1-5-18(6-2-16)34-22(39)12-17-3-7-19(8-4-17)35-26-23-27(32-14-31-26)36(15-33-23)28-25(41)24(40)20(13-37)42-28/h1-8,14-15,20,24-25,28,37,40-41H,9-13,29H2,(H,3 0,38)(H,34,39)(H,31,32,35)",JFRJCQJVFMHZOO-UHFFFAOYSA-N,O1C(CO)C(O)C(O)C1n1c2ncnc(Nc3ccc(cc3)CC(=O)Nc3ccc(cc3)CC(=O)NCCN)c2nc1,C9H10O3,576.61401,-0.7529,13,507.25,3,377.78815,0,"<I>N</I>-(2-aminoethyl)-2-[4-[[2-[4-[[9-[3,4-dihydroxy-5-(hydroxymethyl)tetrahydrofuran-2-yl]purin-6-yl]amino]phenyl]acetyl]amino]phenyl]acetamide"
"InChI=1S/C10H15N5O10P2/c11-8-5-9(13-2-12-8)15(3-14-5)10-7(25-27(20,21)22)6(16)4(24-10)1-23-26(17,18)19/h2-4,6-7,10,16H,1H2,(H2,11,12,13)(H2,17,18,19)(H2,20,21,22)",AEOBEOJCBAYXBA-UHFFFAOYSA-N,P(OC1C(O)C(OC1n1c2ncnc(N)c2nc1)COP(O)(O)=O)(O)(O)=O,C9H8O2,427.203,-4.0929,6,283.00,2,480.58652,1,[2-(6-aminopurin-9-yl)-4-hydroxy-5-(phosphonooxymethyl)tetrahydrofuran-3-yl] dihydrogen phosphate
"InChI=1S/C10H16N5O12P3S/c11-8-5-9(13-2-12-8)15(3-14-5)10-7(17)6(16)4(25-10)1-24-28(18,19)26-29(20,21)27-30(22,23)31/h2-4,6-7,10,16-17H,1H2,(H,18,19)(H,20,21)(H2,11,12,13)(H2,22,23,31)",NLTUCYMLOPLUHL-UHFFFAOYSA-N,S=P(OP(OP(OCC1OC(n2c3ncnc(N)c3nc2)C(O)C1O)(O)=O)(O)=O)(O)O,C10H11ClO3,523.24902,-3.7699,8,322.25,3,540.58875,1,"[[5-(6-aminopurin-9-yl)-3,4-dihydroxy-tetrahydrofuran-2-yl]methoxy-hydroxy-phosphoryl] dihydroxyphosphinothioyl hydrogen phosphate"
"InChI=1S/C19H27N7O20P4/c20-16-13-17(22-6-21-16)26(7-23-13)18-14(28)15(45-48(33,34)35)10(43-18)5-41-49(36,37)46-50(38,39)44-8-3-12(25-2-1-11(27)24-19(25)29)42-9(8)4-40-47(30,31)32/h1-2,6-10,12,14-15,18 ,28H,3-5H2,(H,36,37)(H,38,39)(H2,20,21,22)(H,24,27,29)(",JIAJERGOUFOENU-UHFFFAOYSA-N,P(OC1CC(OC1COP(O)(O)=O)N1C=CC(=O)NC1=O)(OP(OCC1OC(n2c3ncnc(N)c3nc2)C(O)C1OP(O)(O)=O)(O)=O)(O)=O,C10H11N3O3S,797.34998,-6.8479,14,522.63,3,698.49268,0,"[[5-(6-aminopurin-9-yl)-4-hydroxy-3-phosphonooxy-tetrahydrofuran-2-yl]methoxy-hydroxy-phosphoryl] [5-(2,4-dioxopyrimidin-1-yl)-2-(phosphonooxymethyl)tetrahydrofuran-3-yl] hydrogen phosphate"
"InChI=1S/C19H25N7O15P2/c20-15-10-16(22-5-21-15)26(6-23-10)18-11(29)13(7(3-27)38-18)41-43(35,36)37-4-8-14(40-42(32,33)34)12(30)17(39-8)25-2-1-9(28)24-19(25)31/h1-2,5-8,11-14,17-18,27,29-30H,3-4H2,(H,35 ,36)(H2,20,21,22)(H,24,28,31)(H2,32,33,34)",FZCSEXOMUJFOHQ-UHFFFAOYSA-N,P(OC1C(O)C(OC1CO)n1c2ncnc(N)c2nc1)(OCC1OC(N2C=CC(=O)NC2=O)C(O)C1OP(O)(O)=O)(O)=O,C10H11ClO3,653.39099,-6.0939,10,456.38,3,577.45496,1,"[5-(6-aminopurin-9-yl)-4-hydroxy-2-(hydroxymethyl)tetrahydrofuran-3-yl] [5-(2,4-dioxopyrimidin-1-yl)-4-hydroxy-3-phosphonooxy-tetrahydrofuran-2-yl]methyl hydrogen phosphate"
"InChI=1S/C20H25NO2/c1-3-21(4-2)15-16-23-20(22)19(17-11-7-5-8-12-17)18-13-9-6-10-14-18/h5-14,19H,3-4,15-16H2,1-2H3",JGOAIQNSOGZNBX-UHFFFAOYSA-N,O(C(=O)C(c1ccccc1)c1ccccc1)CCN(CC)CC,C10H11N3O3S,311.42499,4.1390,9,317.38,0,37.857864,0,"2-(diethylamino)ethyl 2,2-diphenylacetate"
"InChI=1S/C20H34N2O2/c1-4-5-6-7-8-9-10-11-12-22(3)20-14-18(16-23)13-19(15-20)21-17(2)24/h13-15,23H,4-12,16H2,1-3H3,(H,21,24)",YGFQCJGXLSFQPL-UHFFFAOYSA-N,OCc1cc(N(CCCCCCCCCC)C)cc(NC(=O)C)c1,C10H12O3,334.504,4.7500,13,340.00,0,152.11508,1,<I>N</I>-[3-[decyl(methyl)amino]-5-(hydroxymethyl)phenyl]acetamide
"InChI=1S/C22H36O2/c1-2-3-4-5-6-7-8-9-10-11-12-13-14-15-16-17-18-19-20-21-22(23)24/h6-7,9-10,12-13,15-16H,2-5,8,11,14,17-21H2,1H3,(H,23,24)",TWSWSIQAPQLDBP-UHFFFAOYSA-N,OC(=O)CCCCCC=CCC=CCC=CCC=CCCCCC,C12H7Cl3O2,332.52798,6.0640,16,359.25,1,170.56203,1,"(7<I>E</I>,10<I>E</I>,13<I>E</I>,16<I>E</I>)-docosa-7,10,13,16-tetraenoic acid"
"InChI=1S/C22H36O3/c1-2-3-4-5-6-7-8-9-10-11-12-13-14-15-16-17-18-19-22(24)25-21-20-23/h6-7,9-10,12-13,15-16,23H,2-5,8,11,14,17-21H2,1H3",ZWXLHTWQEHZSAD-UHFFFAOYSA-N,O(C(=O)CCCC=CCC=CCC=CCC=CCCCCC)CCO,C13H10N2O3S,348.52698,4.7500,17,367.00,1,206.52052,0,"2-hydroxyethyl (5<I>E</I>,8<I>E</I>,11<I>E</I>,14<I>E</I>)-icosa-5,8,11,14-tetraenoate"
"InChI=1S/C9H9Br2NO3/c1-15-7-5(10)4-9(14,2-3-12)8(13)6(7)11/h4,8,13-14H,2H2,1H3",BGYNLOSBKBOJJD-UHFFFAOYSA-N,BrC=1C(O)C(O)(C=C(Br)C=1OC)CC#N,C13H18O2,338.983,1.5110,3,205.75,0,169.82927,1,"2-(3,5-dibromo-1,6-dihydroxy-4-methoxy-cyclohexa-2,4-dien-1-yl)acetonitrile"
"InChI=1S/C29H46N6O9S/c1-3-17(2)25(34-27(39)24(37)14-18-6-9-20(36)10-7-18)28(40)35-22-16-21(44-45(41,42)43)11-8-19(22)15-23(35)26(38)32-12-4-5-13-33-29(30)31/h6-7,9-10,17,19,21-25,36-37H,3-5,8,11-16H2, 1-2H3,(H,32,38)(H,34,39)(H4,30,31,33)(H,41,42,43)",WZVRXEOKWMIDDV-UHFFFAOYSA-N,S(OC1CC2N(C(=O)C(NC(=O)C(O)Cc3ccc(O)cc3)C(CC)C)C(CC2CC1)C(=O)NCCCCN=C(N)N)(O)(=O)=O,C13H9Cl3N2O,654.78601,1.3140,18,523.13,3,382.57172,0,"[2-(4-guanidinobutylcarbamoyl)-1-[2-[[2-hydroxy-3-(4-hydroxyphenyl)propanoyl]amino]-3-methyl-pentanoyl]-2,3,3<I>a</I>,4,5,6,7,7<I>a</I>-octahydroindol-6-yl] hydrogen sulfate"
"InChI=1S/C3H9N3S/c4-1-2-7-3(5)6/h1-2,4H2,(H3,5,6)",NWPCXGGYSQHQGM-UHFFFAOYSA-N,S(CCN)C(N)=N,C14H12O3,119.192,-0.3630,3,98.88,0,234.20032,1,2-(2-aminoethyl)isothiourea
"InChI=1S/C16H14FN3O/c1-10-4-2-3-5-14(10)20-15(9-17)19-13-7-6-11(18)8-12(13)16(20)21/h2-8H,9,18H2,1H3",VDOSWXIDETXFET-UHFFFAOYSA-N,FCC1=Nc2c(cc(N)cc2)C(=O)N1c1ccccc1C,C15H12N2O,283.306,2.4180,2,258.50,0,139.03441,1,6-amino-2-(fluoromethyl)-3-(o-tolyl)quinazolin-4-one
InChI=1S/C10H5N3O2/c11-6-9(7-12)5-8-1-3-10(4-2-8)13(14)15/h1-5H,BDTIGNGBIBFXSE-UHFFFAOYSA-N,O=[N+]([O-])c1ccc(cc1)C=C(C#N)C#N,C4H4KNO4S,199.16899,1.5510,4,189.00,0,228.08243,0,2-[(4-nitrophenyl)methylene]propanedinitrile
"InChI=1S/C15H9N5/c16-7-12(15(19)13(8-17)9-18)6-10-1-2-14-11(5-10)3-4-20-14/h1-6,20H,19H2",CMMDWEJTQUTCKG-UHFFFAOYSA-N,[nH]1c2c(cc(cc2)C=C(C(N)=C(C#N)C#N)C#N)cc1,C7H6O3,259.272,1.3790,5,256.50,0,299.31726,1,"(3<I>Z</I>)-2-amino-4-(1<I>H</I>-indol-5-yl)buta-1,3-diene-1,1,3-tricarbonitrile"
"InChI=1S/C14H13BrN2O/c1-14(2,3)11-5-9(4-10(7-16)8-17)6-12(15)13(11)18/h4-6,18H,1-3H3",ABBADGFSRBWENF-UHFFFAOYSA-N,Brc1cc(cc(C(C)(C)C)c1O)C=C(C#N)C#N,C7H8N4O2,305.17499,3.6750,4,245.63,0,162.30994,0,2-[(3-bromo-5-tert-butyl-4-hydroxy-phenyl)methylene]propanedinitrile
"InChI=1S/C13H8N4O/c14-6-10(13(17)11(7-15)8-16)5-9-1-3-12(18)4-2-9/h1-5,18H,17H2",DXVJRTIPBNBLLB-UHFFFAOYSA-N,Oc1ccc(cc1)C=C(C(N)=C(C#N)C#N)C#N,C8H10N4O2,236.23399,0.8300,5,228.63,0,292.08014,1,"(3<I>Z</I>)-2-amino-4-(4-hydroxyphenyl)buta-1,3-diene-1,1,3-tricarbonitrile"
"InChI=1S/C10H5N3O3/c11-5-8(6-12)3-7-1-2-9(13(15)16)10(14)4-7/h1-4,14H",DUQADSPERJRQBW-UHFFFAOYSA-N,Oc1cc(ccc1[N+](=O)[O-])C=C(C#N)C#N,C8H14ClN5,215.168,1.2780,4,194.00,0,258.66028,1,2-[(3-hydroxy-4-nitro-phenyl)methylene]propanedinitrile
"InChI=1S/C16H14N2/c1-11-8-14-15(9-12(11)2)18-16(10-17-14)13-6-4-3-5-7-13/h3-10H,1-2H3",FQNCLVJEQCJWSU-UHFFFAOYSA-N,n1c2cc(C)c(cc2ncc1-c1ccccc1)C,C8H8O3,234.302,4.2133,1,243.75,0,41.475143,1,"6,7-dimethyl-2-phenyl-quinoxaline"
"InChI=1S/C16H14N2O2/c1-19-15-8-12-13(9-16(15)20-2)18-14(10-17-12)11-6-4-3-5-7-11/h3-10H,1-2H3",QNOXYUNHIGOWNY-UHFFFAOYSA-N,O(C)c1cc2nc(cnc2cc1OC)-c1ccccc1,C8H9NO2,266.29999,2.9393,3,263.88,0,104.72188,0,"6,7-dimethoxy-2-phenyl-quinoxaline"
"InChI=1S/C16H14ClN3O2/c1-21-14-7-12-13(8-15(14)22-2)18-9-19-16(12)20-11-5-3-4-10(17)6-11/h3-9H,1-2H3,(H,18,19,20)",GFNNBHLJANVSQV-UHFFFAOYSA-N,Clc1cc(Nc2ncnc3c2cc(OC)c(OC)c3)ccc1,C9H10O3,315.75998,3.1137,4,290.88,0,140.14496,1,"<I>N</I>-(3-chlorophenyl)-6,7-dimethoxy-quinazolin-4-amine"
"InChI=1S/C10H6N2O2/c11-5-8(6-12)3-7-1-2-9(13)10(14)4-7/h1-4,13-14H",VTJXFTPMFYAJJU-UHFFFAOYSA-N,Oc1cc(ccc1O)C=C(C#N)C#N,C9H8O2,186.17,1.0350,3,177.00,0,237.00862,1,"2-[(3,4-dihydroxyphenyl)methylene]propanedinitrile"
"InChI=1S/C10H7NO4/c11-5-7(10(14)15)3-6-1-2-8(12)9(13)4-6/h1-4,12-13H,(H,14,15)",CJMWBHLWSMKFSM-UHFFFAOYSA-N,Oc1cc(ccc1O)C=C(C#N)C(O)=O,C10H11ClO3,205.16899,1.0520,3,179.13,0,246.06261,0,"(<I>E</I>)-2-cyano-3-(3,4-dihydroxyphenyl)prop-2-enoic acid"
"InChI=1S/C16H12N2O3/c17-10-12(8-11-6-7-14(19)15(20)9-11)16(21)18-13-4-2-1-3-5-13/h1-9,19-20H,(H,18,21)",HKHOVJYOELRGMV-UHFFFAOYSA-N,Oc1cc(ccc1O)C=C(C(=O)Nc1ccccc1)C#N,C10H11N3O3S,280.28299,2.3280,5,264.25,0,186.23979,1,"(<I>E</I>)-2-cyano-3-(3,4-dihydroxyphenyl)-<I>N</I>-phenyl-prop-2-enamide"
"InChI=1S/C18H16N2O3/c1-12(14-5-3-2-4-6-14)20-18(23)15(11-19)9-13-7-8-16(21)17(22)10-13/h2-10,12,21-22H,1H3,(H,20,23)",UMGQVUWXNOJOSJ-UHFFFAOYSA-N,Oc1cc(ccc1O)C=C(C(=O)NC(C)c1ccccc1)C#N,C10H12O3,308.33701,2.9240,6,295.25,0,176.6588,0,"(<I>E</I>)-2-cyano-3-(3,4-dihydroxyphenyl)-<I>N</I>-(1-phenylethyl)prop-2-enamide"
"InChI=1S/C16H11NO5/c17-8-11(5-9-1-3-12(18)14(20)6-9)16(22)10-2-4-13(19)15(21)7-10/h1-7,18-21H",CANOJKGQDCJDOX-UHFFFAOYSA-N,Oc1cc(ccc1O)C(=O)C(=Cc1cc(O)c(O)cc1)C#N,C12H7Cl3O2,297.26599,2.3090,4,263.25,0,264.26385,1,"(<I>E</I>)-2-(3,4-dihydroxybenzoyl)-3-(3,4-dihydroxyphenyl)prop-2-enenitrile"
"InChI=1S/C19H18N2O3/c20-13-16(11-15-8-9-17(22)18(23)12-15)19(24)21-10-4-7-14-5-2-1-3-6-14/h1-3,5-6,8-9,11-12,22-23H,4,7,10H2,(H,21,24)",GSQOBTOAOGXIFL-UHFFFAOYSA-N,Oc1cc(ccc1O)C=C(C(=O)NCCCc1ccccc1)C#N,C13H10N2O3S,322.36398,2.9920,8,314.25,0,188.53017,1,"(<I>E</I>)-2-cyano-3-(3,4-dihydroxyphenyl)-<I>N</I>-(3-phenylpropyl)prop-2-enamide"
"InChI=1S/C20H20N2O3/c21-14-17(12-16-9-10-18(23)19(24)13-16)20(25)22-11-5-4-8-15-6-2-1-3-7-15/h1-3,6-7,9-10,12-13,23-24H,4-5,8,11H2,(H,22,25)",GWCNJMUSWLTSCW-UHFFFAOYSA-N,Oc1cc(ccc1O)C=C(C(=O)NCCCCc1ccccc1)C#N,C13H18O2,336.39099,3.4340,9,327.13,0,211.1622,0,"(<I>E</I>)-2-cyano-3-(3,4-dihydroxyphenyl)-<I>N</I>-(4-phenylbutyl)prop-2-enamide"