InChI,Key,smiles,Formula,Weight,logP(o/w),b_rotN,vol,lip_violation,ASA_P,Natural,ChemicalName
"InChI=1S/C16H17NO2/c18-15-8-12-6-7-17-10-14(13(12)9-16(15)19)11-4-2-1-3-5-11/h1-5,8-9,14,17-19H,6-7,10H2",JUDKOGFHZYMDMF-UHFFFAOYSA-N,Oc1cc2c(cc1O)CCNCC2c1ccccc1,C10H11ClO3,255.317,2.7820,1,240.13,0,127.81581,1,"5-phenyl-2,3,4,5-tetrahydro-1<I>H</I>-3-benzazepine-7,8-diol"
"InChI=1S/C17H18BrNO/c1-19-8-7-13-9-16(18)17(20)10-14(13)15(11-19)12-5-3-2-4-6-12/h2-6,9-10,15,20H,7-8,11H2,1H3",XFTVOHWWEQGXLS-UHFFFAOYSA-N,Brc1cc2c(cc1O)C(CN(CC2)C)c1ccccc1,C10H11N3O3S,332.241,4.1560,1,274.00,0,73.3843,0,"8-bromo-3-methyl-5-phenyl-1,2,4,5-tetrahydro-3-benzazepin-7-ol"
"InChI=1S/C9H10O5/c1-14-7-4-5(2-3-6(7)10)8(11)9(12)13/h2-4,8,10-11H,1H3,(H,12,13)",CGQCWMIAEPEHNQ-UHFFFAOYSA-N,O(C)c1cc(ccc1O)C(O)C(O)=O,C10H12O3,198.174,0.6930,3,167.13,0,206.72195,1,2-hydroxy-2-(4-hydroxy-3-methoxy-phenyl)acetic acid
"InChI=1S/C21H25NO4/c1-25-15-5-4-13-10-16-21(24)7-6-14(23)19-20(21,17(13)18(15)26-19)8-9-22(16)11-12-2-3-12/h4-5,12,16,19,24H,2-3,6-11H2,1H3",DSMNGWOUQMYTJH-UHFFFAOYSA-N,O1C2C34CCN(C(Cc5c3c1c(OC)cc5)C4(O)CCC2=O)CC1CC1,C12H7Cl3O2,355.43399,1.5820,3,289.25,0,160.72794,1,"3-(cyclopropylmethyl)-4<I>a</I>-hydroxy-9-methoxy-2,4,5,6,7<I>a</I>,13-hexahydro-1<I>H</I>-4,12-methanobenzofuro[3,2-e]isoquinoline-7-one"
"InChI=1S/C21H20NO6/c1-22(2)6-5-11-7-15-16(26-9-25-15)8-13(11)18(22)19-12-3-4-14-20(27-10-24-14)17(12)21(23)28-19/h3-4,7-8,18-19H,5-6,9-10H2,1-2H3/q+1",WDIQXKYUSINZME-UHFFFAOYSA-N,O1C(c2c(c3OCOc3cc2)C1=O)C1[N+](CCc2c1cc1OCOc1c2)(C)C,C13H18O2,382.392,2.5650,1,326.25,0,184.85115,1,"6-(6,6-dimethyl-7,8-dihydro-5<I>H</I>-[1,3]dioxolo[4,5-g]isoquinolin-6-ium-5-yl)-6<I>H</I>-furo[3,4-e][1,3]benzodioxol-8-one"
"InChI=1S/C15H14O7/c16-7-3-9(17)8-5-12(20)15(22-13(8)4-7)6-1-10(18)14(21)11(19)2-6/h1-4,12,15-21H,5H2",XMOCLSLCDHWDHP-UHFFFAOYSA-N,O1c2c(CC(O)C1c1cc(O)c(O)c(O)c1)c(O)cc(O)c2,C13H9Cl3N2O,306.26999,1.7060,1,250.38,1,251.15898,0,"2-(3,4,5-trihydroxyphenyl)chromane-3,5,7-triol"
"InChI=1S/C13H18N2O/c1-13-6-7-14(2)12(13)15(3)11-5-4-9(16)8-10(11)13/h4-5,8,12,16H,6-7H2,1-3H3",HKGWQUVGHPDEBZ-UHFFFAOYSA-N,Oc1cc2c(N(C3N(CCC23C)C)C)cc1,C14H12O3,218.29999,1.8340,0,205.63,0,97.778175,1,"3,4,8<I>b</I>-trimethyl-2,3<I>a</I>-dihydro-1<I>H</I>-pyrrolo[2,3-b]indol-7-ol"
"InChI=1S/C21H28O2/c1-13-7-9-18-16(6-5-11-21(18,3)4)20(14(13)2)17-12-15(22)8-10-19(17)23/h8,10,12-13,20,22-23H,2,5-7,9,11H2,1,3-4H3",MISNKONIRLZVLE-UHFFFAOYSA-N,Oc1ccc(O)cc1C1C2=C(CCC(C)C1=C)C(CCC2)(C)C,C15H12N2O,312.453,4.7020,1,288.38,1,103.10506,1,"2-(1,1,7-trimethyl-6-methylene-3,4,5,7,8,9-hexahydro-2<I>H</I>-benzo[7]annulen-5-yl)benzene-1,4-diol"
"InChI=1S/C10H20O/c1-7(2)9-5-4-8(3)6-10(9)11/h7-11H,4-6H2,1-3H3",NOOLISFMXDJSKH-UHFFFAOYSA-N,OC1CC(CCC1C(C)C)C,C7H8N4O2,156.269,3.0910,1,157.63,0,36.128914,0,2-isopropyl-5-methyl-cyclohexanol
"InChI=1S/C17H19NO3/c1-20-13-5-2-9-8-11-10-3-4-12(19)16-17(10,6-7-18-11)14(9)15(13)21-16/h2-5,10-12,16,18-19H,6-8H2,1H3",HKOIXWVRNLGFOR-UHFFFAOYSA-N,O1C2C34C(C(NCC3)Cc3c4c1c(OC)cc3)C=CC2O,C8H10N4O2,285.34299,0.9330,1,228.00,0,129.37202,1,"9-methoxy-1,2,3,4,4<I>a</I>,7,7<I>a</I>,13-octahydro-4,12-methanobenzofuro[3,2-e]isoquinoline-7-ol"
"InChI=1S/C10H14O2/c1-7(2)8-3-5-9(6-4-8)10(11)12/h5,8H,1,3-4,6H2,2H3,(H,11,12)",CDSMSBUVCWHORP-UHFFFAOYSA-N,OC(=O)C=1CCC(CC=1)C(C)=C,C8H14ClN5,166.22,1.2740,2,163.00,0,137.09894,1,4-isopropenylcyclohexene-1-carboxylic acid
"InChI=1S/C13H21N3/c1-2-5-16-6-3-4-10-7-12-11(8-13(10)16)9-14-15-12/h9-10,13H,2-8H2,1H3,(H,14,15)",FTSUPYGMFAPCFZ-UHFFFAOYSA-N,[nH]1ncc2CC3N(CCCC3Cc12)CCC,C8H8O3,219.332,2.2350,2,212.13,0,80.258476,0,"5-propyl-1,4,4<I>a</I>,6,7,8,8<I>a</I>,9-octahydropyrazolo[3,4-g]quinoline"
"InChI=1S/C32H48N4O6S/c1-22(2)17-18-36(43(40,41)27-15-11-25(33)12-16-27)21-29(37)28-20-24-9-13-26(14-10-24)42-19-7-5-6-8-30(38)35-31(23(3)4)32(39)34-28/h9-16,22-23,28-29,31,37H,5-8,17-21,33H2,1-4H3,(H, 34,39)(H,35,38)",FBNSKSOTNMECSA-UHFFFAOYSA-N,S(=O)(=O)(N(CC(O)C1NC(=O)C(NC(=O)CCCCCOc2ccc(C1)cc2)C(C)C)CCC(C)C)c1ccc(N)cc1,C9H10O3,616.82397,3.8650,9,543.25,1,207.96719,0,"4-amino-<I>N</I>-[2-hydroxy-2-(6-isopropyl-5,8-dioxo-14-oxa-4,7-diazabicyclo[13.2.2]nonadeca-1(17),15,18-trien-3-yl)ethyl]-<I>N</I>-isopentyl-benzenesulfonamide"
"InChI=1S/C16H25N3O7S2/c1-3-4-9-26-13-5-7-14(8-6-13)28(24,25)19-11-12(18-27(2,22)23)10-15(19)16(20)17-21/h5-8,12,15,18,21H,3-4,9-11H2,1-2H3,(H,17,20)",ULDXUWXTVRRUND-UHFFFAOYSA-N,S(=O)(=O)(N1CC(NS(=O)(=O)C)CC1C(=O)NO)c1ccc(OCCCC)cc1,C9H8O2,435.522,0.2200,10,333.50,0,236.77957,1,1-(4-butoxyphenyl)sulfonyl-4-(methanesulfonamido)pyrrolidine-2-carbohydroxamic acid
"InChI=1S/C17H18BNO5/c20-16(11-12-5-2-1-3-6-12)19-15(18(23)24)10-13-7-4-8-14(9-13)17(21)22/h1-9,15,23-24H,10-11H2,(H,19,20)(H,21,22)",ZAHVYMBTUDWUAX-UHFFFAOYSA-N,OB(O)C(NC(=O)Cc1ccccc1)Cc1cc(ccc1)C(O)=O,C10H11ClO3,327.14398,2.0580,8,301.25,0,220.54097,1,3-[2-borono-2-[(2-phenylacetyl)amino]ethyl]benzoic acid
"InChI=1S/C11H15N4O7P/c16-9-5(2-22-23(19,20)21)15-7(10(9)17)4-1-12-8-6(4)13-3-14-11(8)18/h1,3,5,7,9-10,12,15-17H,2H2,(H,13,14,18)(H2,19,20,21)",VJTAXXUIRYOXBT-UHFFFAOYSA-N,P(OCC1NC(C(O)C1O)c1c2NC=NC(=O)c2[nH]c1)(O)(O)=O,C10H11N3O3S,346.23599,-2.7660,4,250.00,2,381.1225,0,"[3,4-dihydroxy-5-(4-oxo-1,5-dihydropyrrolo[3,2-d]pyrimidin-7-yl)pyrrolidin-2-yl]methyl dihydrogen phosphate"
"InChI=1S/C19H19N5O3S2/c25-18(14(11-28)7-6-13-4-2-1-3-5-13)21-17(19(26)27)16-9-8-15(29-16)10-24-12-20-22-23-24/h1-5,8-9,12,14,28H,6-7,10-11H2,(H,26,27)/b21-17-",DUKDFMPUZRDWLT-FXBPSFAMSA-N,s1c(ccc1/C(=N/C(=O)C(CCc1ccccc1)CS)/C(O)=O)Cn1nnnc1,C10H12O3,429.52499,1.9580,10,365.75,0,218.87111,1,(2<I>E</I>)-2-[4-phenyl-2-(sulfanylmethyl)butanoyl]imino-2-[5-(tetrazol-1-ylmethyl)-2-thienyl]acetic acid
"InChI=1S/C20H27N11O4/c1-28(2)7-6-21-18(33)15-24-13(9-30(15)4)26-20(35)17-25-14(10-31(17)5)27-19(34)16-23-12(22-11-32)8-29(16)3/h8-11H,6-7H2,1-5H3,(H,21,33)(H,22,32)(H,26,35)(H,27,34)/p+1",PFRKDKQPQSBYQX-UHFFFAOYSA-O,O=C(Nc1nc(n(c1)C)C(=O)NCC[NH+](C)C)c1nc(NC(=O)c2nc(NC=O)cn2C)cn1C,C12H7Cl3O2,486.517,-2.0520,13,441.38,1,443.21707,0,2-[[4-[[4-[(4-formamido-1-methyl-imidazole-2-carbonyl)amino]-1-methyl-imidazole-2-carbonyl]amino]-1-methyl-imidazole-2-carbonyl]amino]ethyl-dimethyl-ammonium
"InChI=1S/C20H27N11O4/c1-28(2)7-6-21-18(33)15-24-13(9-30(15)4)26-20(35)17-25-14(10-31(17)5)27-19(34)16-23-12(22-11-32)8-29(16)3/h8-11H,6-7H2,1-5H3,(H,21,33)(H,22,32)(H,26,35)(H,27,34)",PFRKDKQPQSBYQX-UHFFFAOYSA-N,O=C(Nc1nc(n(c1)C)C(=O)NCCN(C)C)c1nc(NC(=O)c2nc(NC=O)cn2C)cn1C,C13H10N2O3S,485.509,-2.0520,13,441.38,1,435.97311,1,<I>N</I>-[2-[[2-[2-(dimethylamino)ethylcarbamoyl]-1-methyl-imidazol-4-yl]carbamoyl]-1-methyl-imidazol-4-yl]-4-formamido-1-methyl-imidazole-2-carboxamide
"InChI=1S/C23H27N3O4S/c1-23(2)19(22(29)30)26-21(31-23)18(20(28)24-14-16-11-7-4-8-12-16)25-17(27)13-15-9-5-3-6-10-15/h3-12,18-19,21,26H,13-14H2,1-2H3,(H,24,28)(H,25,27)(H,29,30)",UDMBRVGTYILYDX-UHFFFAOYSA-N,S1C(C)(C)C(NC1C(NC(=O)Cc1ccccc1)C(=O)NCc1ccccc1)C(O)=O,C14H12O3,441.552,3.1770,10,386.50,0,193.04817,1,"2-[2-(benzylamino)-2-oxo-1-[(2-phenylacetyl)amino]ethyl]-5,5-dimethyl-thiazolidine-4-carboxylic acid"
"InChI=1S/C31H42N4O4/c1-21(2)27(28-32-16-17-33-28)35-29(37)24(18-22-12-8-6-9-13-22)20-26(36)25(19-23-14-10-7-11-15-23)34-30(38)39-31(3,4)5/h6-17,21,24-27,36H,18-20H2,1-5H3,(H,32,33)(H,34,38)(H,35,37)",QAHXABIFJPGWDD-UHFFFAOYSA-N,O(C(C)(C)C)C(=O)NC(Cc1ccccc1)C(O)CC(Cc1ccccc1)C(=O)NC(C(C)C)c1[nH]ccn1,C15H12N2O,534.70099,4.6800,16,497.25,2,105.27747,0,"tert-butyl <I>N</I>-[1,4-dibenzyl-2-hydroxy-5-[[1-(1<I>H</I>-imidazol-2-yl)-2-methyl-propyl]amino]-5-oxo-pentyl]carbamate"
"InChI=1S/C16H23N3O6/c1-9(2)7-13(16(22)23)18-15(21)14(20)12(17)8-10-3-5-11(6-4-10)19(24)25/h3-6,9,12-14,20H,7-8,17H2,1-2H3,(H,18,21)(H,22,23)",AXNJBMQISBJVSJ-UHFFFAOYSA-N,OC(C(N)Cc1ccc([N+](=O)[O-])cc1)C(=O)NC(CC(C)C)C(O)=O,C4H4KNO4S,353.375,1.2410,10,299.00,0,253.5204,1,2-[[3-amino-2-hydroxy-4-(4-nitrophenyl)butanoyl]amino]-4-methyl-pentanoic acid
"InChI=1S/C6H9NO4/c7-4(6(10)11)2-1-3(2)5(8)9/h2-4H,1,7H2,(H,8,9)(H,10,11)",GZOVEPYOCJWRFC-UHFFFAOYSA-N,OC(=O)C1CC1C(N)C(O)=O,C7H6O3,159.14099,-3.5717,3,128.25,0,212.92386,1,2-[amino(carboxy)methyl]cyclopropanecarboxylic acid
"InChI=1S/C14H19NO5S/c1-3-11(9-16)13(14(17)18)8-15-21(19,20)12-6-4-10(2)5-7-12/h4-7,9,11,13,15H,3,8H2,1-2H3,(H,17,18)",IDDWUPNJUMHKFQ-UHFFFAOYSA-N,S(=O)(=O)(NCC(C(CC)C=O)C(O)=O)c1ccc(cc1)C,C7H8N4O2,313.37399,1.4040,8,262.50,0,188.10864,0,3-formyl-2-[(p-tolylsulfonylamino)methyl]pentanoic acid
"InChI=1S/C13H16N2O7S/c1-2-9(8-16)12(13(17)18)7-14-23(21,22)11-5-3-10(4-6-11)15(19)20/h3-6,8-9,12,14H,2,7H2,1H3,(H,17,18)",JPQYVEFTAZEPOD-UHFFFAOYSA-N,S(=O)(=O)(NCC(C(CC)C=O)C(O)=O)c1ccc([N+](=O)[O-])cc1,C8H10N4O2,344.34399,1.0410,9,268.00,0,271.15872,1,3-formyl-2-[[(4-nitrophenyl)sulfonylamino]methyl]pentanoic acid
"InChI=1S/C14H27N/c1-3-4-5-6-7-8-9-10-11-12-13-14(2)15/h10-14H,3-9,15H2,1-2H3",WCUPLXASCCDKJN-UHFFFAOYSA-N,NC(C=CC=CCCCCCCCC)C,C8H14ClN5,209.377,4.3770,9,230.63,0,77.821045,0,"(3<I>E</I>,5<I>E</I>)-tetradeca-3,5-dien-2-amine"
"InChI=1S/C26H32N4O7S/c1-16(2)23(28-24(33)19-11-10-17-7-4-5-8-18(17)13-19)26(35)30-12-6-9-21(30)25(34)27-20(15-31)14-22(32)29-38(3,36)37/h4-5,7-8,10-11,13,15-16,20-21,23H,6,9,12,14H2,1-3H3,(H,27,34)(H, 28,33)(H,29,32)",IGFYXXJBAZZOHF-UHFFFAOYSA-N,S(=O)(=O)(NC(=O)CC(NC(=O)C1N(CCC1)C(=O)C(NC(=O)c1cc2c(cc1)cccc2)C(C)C)C=O)C,C8H8O3,544.62897,1.6510,14,458.00,2,217.67982,1,<I>N</I>-[1-formyl-3-(methanesulfonamido)-3-oxo-propyl]-1-[3-methyl-2-(naphthalene-2-carbonylamino)butanoyl]pyrrolidine-2-carboxamide
"InChI=1S/C13H15NO5S/c1-3-10-11(13(16)17)14(12(10)15)20(18,19)9-6-4-8(2)5-7-9/h4-7,10-11H,3H2,1-2H3,(H,16,17)",QWRJBKGTEVHFRI-UHFFFAOYSA-N,S(=O)(=O)(N1C(C(O)=O)C(CC)C1=O)c1ccc(cc1)C,C8H9NO2,297.33099,1.2980,4,243.75,0,165.73621,1,3-ethyl-4-oxo-1-(p-tolylsulfonyl)azetidine-2-carboxylic acid
"InChI=1S/C10H20NO9P/c1-4(13)11-8-5(14)2-7(21(17,18)19)20-10(8)9(16)6(15)3-12/h5-10,12,14-16H,2-3H2,1H3,(H,11,13)(H2,17,18,19)",QITAGYVZDNZULE-UHFFFAOYSA-N,P(O)(O)(=O)C1OC(C(O)C(O)CO)C(NC(=O)C)C(O)C1,C9H10O3,329.242,-4.1450,6,227.63,1,331.77692,0,"[5-acetamido-4-hydroxy-6-(1,2,3-trihydroxypropyl)tetrahydropyran-2-yl]phosphonic acid"
"InChI=1S/C22H24N4O/c23-21(24)17-6-7-19-18(13-17)14-20(25-19)22(27)26-10-8-16(9-11-26)12-15-4-2-1-3-5-15/h1-7,13-14,16,18H,8-12H2,(H3,23,24)/p+1",KVXKNKYHJPTYNK-UHFFFAOYSA-O,O=C(N1CCC(CC1)Cc1ccccc1)C=1N=C2C(C=C(C=C2)C(=[NH2+])N)C=1,C9H8O2,361.46899,2.1250,5,349.50,0,204.90874,1,[amino-[2-(4-benzylpiperidine-1-carbonyl)-3<I>a</I><I>H</I>-indol-5-yl]methylene]ammonium
"InChI=1S/C22H24N4O/c23-21(24)17-6-7-19-18(13-17)14-20(25-19)22(27)26-10-8-16(9-11-26)12-15-4-2-1-3-5-15/h1-7,13-14,16,18H,8-12H2,(H3,23,24)",KVXKNKYHJPTYNK-UHFFFAOYSA-N,O=C(N1CCC(CC1)Cc1ccccc1)C=1N=C2C(C=C(C=C2)C(N)=N)C=1,C10H11ClO3,360.461,2.3380,5,350.63,0,192.64658,0,2-(4-benzylpiperidine-1-carbonyl)-3<I>a</I><I>H</I>-indole-5-carboxamidine
"InChI=1S/C9H14N2O4S3/c1-5-3-7(11-2)6-4-8(18(10,14)15)16-9(6)17(5,12)13/h4-5,7,11H,3H2,1-2H3,(H2,10,14,15)",PYXFWOIZPYXNRU-UHFFFAOYSA-N,s1c2S(=O)(=O)C(CC(NC)c2cc1S(=O)(=O)N)C,C10H11N3O3S,310.41901,0.2680,2,212.25,0,231.99646,1,"6-methyl-4-(methylamino)-7,7-dioxo-5,6-dihydro-4<I>H</I>-thieno[2,3-b]thiopyran-2-sulfonamide"
"InChI=1S/C16H14N6/c17-16(18)9-5-6-12-13(7-9)22-15(21-12)8-14-19-10-3-1-2-4-11(10)20-14/h1-7H,8H2,(H3,17,18)(H,19,20)(H,21,22)/p+1",KKJYVDXDZURHMA-UHFFFAOYSA-O,[NH2+]=C(N)c1cc2[nH]c(nc2cc1)Cc1[nH]c2c(n1)cccc2,C10H12O3,291.33798,1.6670,3,273.63,1,198.23239,1,[amino-[2-(1<I>H</I>-benzimidazol-2-ylmethyl)-3<I>H</I>-benzimidazol-5-yl]methylene]ammonium
"InChI=1S/C16H14N6/c17-16(18)9-5-6-12-13(7-9)22-15(21-12)8-14-19-10-3-1-2-4-11(10)20-14/h1-7H,8H2,(H3,17,18)(H,19,20)(H,21,22)",KKJYVDXDZURHMA-UHFFFAOYSA-N,[nH]1c2cc(ccc2nc1Cc1[nH]c2c(n1)cccc2)C(N)=N,C12H7Cl3O2,290.32999,1.8800,3,273.63,0,195.93459,0,2-(1<I>H</I>-benzimidazol-2-ylmethyl)-3<I>H</I>-benzimidazole-5-carboxamidine
"InChI=1S/C4H5IN2O2/c5-2-1-6-4(9)7-3(2)8/h2H,1H2,(H2,6,7,8,9)",YGKCTZPSAOUUMT-UHFFFAOYSA-N,IC1CNC(=O)NC1=O,C13H10N2O3S,240,-0.0410,0,121.13,0,160.07625,1,"5-iodohexahydropyrimidine-2,4-dione"
"InChI=1S/C13H17NO5S/c1-4-5-18-13(17)9-6-20-12-10(11(16)14(9)12)7(2)19-8(3)15/h6-7,10,12H,4-5H2,1-3H3",NEPDBQXSCUYOPA-UHFFFAOYSA-N,S1C2N(C(=O)C2C(OC(=O)C)C)C(=C1)C(OCCC)=O,C13H18O2,299.34698,1.0290,7,255.25,0,139.01717,0,propyl 6-(1-acetoxyethyl)-7-oxo-4-thia-1-azabicyclo[3.2.0]hept-2-ene-2-carboxylate
"InChI=1S/C20H26O4/c1-13-6-4-8-16(19(21)22)9-5-7-14(2)12-18-17(11-10-13)15(3)20(23)24-18/h6,9,12,17-18H,3-5,7-8,10-11H2,1-2H3,(H,21,22)",SORYERHBQFTRIK-UHFFFAOYSA-N,O1C2C(CCC(=CCCC(=CCCC(=C2)C)C(O)=O)C)C(=C)C1=O,C13H9Cl3N2O,330.42398,2.3260,1,296.88,0,193.09517,1,"(6<I>Z</I>,10<I>Z</I>,14<I>Z</I>)-6,14-dimethyl-3-methylene-2-oxo-3<I>a</I>,4,5,8,9,12,13,15<I>a</I>-octahydrocyclotetradeca[b]furan-10-carboxylic acid"
"InChI=1S/C22H26O6/c1-24-18-7-5-14(11-20(18)26-3)9-16-13-28-22(23)17(16)10-15-6-8-19(25-2)21(12-15)27-4/h5-8,11-12,16-17H,9-10,13H2,1-4H3",SNAOLIMFHAAIER-UHFFFAOYSA-N,O1CC(Cc2cc(OC)c(OC)cc2)C(Cc2cc(OC)c(OC)cc2)C1=O,C14H12O3,386.444,3.0885,8,363.13,0,201.52007,1,"3,4-bis[(3,4-dimethoxyphenyl)methyl]tetrahydrofuran-2-one"
"InChI=1S/C22H18O11/c23-10-5-12(24)11-7-18(33-22(31)9-3-15(27)20(30)16(28)4-9)21(32-17(11)6-10)8-1-13(25)19(29)14(26)2-8/h1-6,18,21,23-30H,7H2",WMBWREPUVVBILR-UHFFFAOYSA-N,O1c2c(CC(OC(=O)c3cc(O)c(O)c(O)c3)C1c1cc(O)c(O)c(O)c1)c(O)cc(O)c2,C15H12N2O,458.375,3.1030,4,370.63,2,360.93964,0,"[5,7-dihydroxy-2-(3,4,5-trihydroxyphenyl)chroman-3-yl] 3,4,5-trihydroxybenzoate"
"InChI=1S/C18H27N3O4/c1-12(2)9-14(11-16(22)21-25)17(23)20-15(18(24)19-3)10-13-7-5-4-6-8-13/h4-8,12,14-15,25H,9-11H2,1-3H3,(H,19,24)(H,20,23)(H,21,22)",MOPRTFSMCQNUCT-UHFFFAOYSA-N,O=C(NC(Cc1ccccc1)C(=O)NC)C(CC(C)C)CC(=O)NO,C7H6O3,349.431,1.1550,12,312.38,0,200.87166,0,<I>N</I>-[1-benzyl-2-(methylamino)-2-oxo-ethyl]-2-[2-(hydroxyamino)-2-oxo-ethyl]-4-methyl-pentanamide
"InChI=1S/C11H19N3O5S3/c1-3-13-9-7-14(4-5-19-2)22(17,18)11-8(9)6-10(20-11)21(12,15)16/h6,9,13H,3-5,7H2,1-2H3,(H2,12,15,16)",XACIEZJJSXJZMD-UHFFFAOYSA-N,s1c2S(=O)(=O)N(CC(NCC)c2cc1S(=O)(=O)N)CCOC,C7H8N4O2,369.487,-1.0010,6,263.50,0,276.15482,1,"4-(ethylamino)-2-(2-methoxyethyl)-1,1-dioxo-3,4-dihydrothieno[3,2-e]thiazine-6-sulfonamide"
"InChI=1S/C8H8O3/c9-7(8(10)11)6-4-2-1-3-5-6/h1-5,7,9H,(H,10,11)",IWYDHOAUDWTVEP-UHFFFAOYSA-N,OC(C(O)=O)c1ccccc1,C8H10N4O2,152.149,1.0100,2,137.00,0,130.30879,1,2-hydroxy-2-phenyl-acetic acid
"InChI=1S/C23H39NO2/c1-3-4-5-6-7-8-9-10-11-12-13-14-15-16-17-18-19-20-23(26)24-22(2)21-25/h7-8,10-11,13-14,16-17,22,25H,3-6,9,12,15,18-21H2,1-2H3,(H,24,26)",SQKRUBZPTNJQEM-UHFFFAOYSA-N,OCC(NC(=O)CCCC=CCC=CCC=CCC=CCCCCC)C,C8H14ClN5,361.56998,4.5700,17,383.75,1,187.26692,0,"(5<I>E</I>,8<I>E</I>,11<I>E</I>,14<I>E</I>)-<I>N</I>-(2-hydroxy-1-methyl-ethyl)icosa-5,8,11,14-tetraenamide"
"InChI=1S/C11H16ClO3P/c1-3-10(15-16(2,12)13)9-14-11-7-5-4-6-8-11/h4-8,10H,3,9H2,1-2H3",YEIXDWIEYXZUBR-UHFFFAOYSA-N,ClP(OC(CC)COc1ccccc1)(=O)C,C8H8O3,262.673,2.6627,6,214.00,0,104.41431,1,2-[chloro(methyl)phosphoryl]oxybutoxybenzene
"InChI=1S/C17H19N/c1-3-8-14(9-4-1)17(16-12-7-13-18-16)15-10-5-2-6-11-15/h1-6,8-11,16-18H,7,12-13H2",OXOBKZZXZVFOBB-UHFFFAOYSA-N,N1CCCC1C(c1ccccc1)c1ccccc1,C8H9NO2,237.34599,4.0730,3,245.13,0,29.395193,0,2-benzhydrylpyrrolidine
"InChI=1S/C14H17N3O5S3/c1-16-12-8-17(9-4-3-5-10(6-9)22-2)25(20,21)14-11(12)7-13(23-14)24(15,18)19/h3-7,12,16H,8H2,1-2H3,(H2,15,18,19)",RMOXCYSVWCHXII-UHFFFAOYSA-N,s1c2S(=O)(=O)N(CC(NC)c2cc1S(=O)(=O)N)c1cc(OC)ccc1,C9H10O3,403.504,0.3870,4,295.88,0,288.50812,1,"2-(3-methoxyphenyl)-4-(methylamino)-1,1-dioxo-3,4-dihydrothieno[3,2-e]thiazine-6-sulfonamide"
"InChI=1S/C9H9NO5/c10-7(9(14)15)4-1-2-5(8(12)13)6(11)3-4/h1-3,7,11H,10H2,(H,12,13)(H,14,15)",GXZSAQLJWLCLOX-UHFFFAOYSA-N,Oc1cc(ccc1C(O)=O)C(N)C(O)=O,C9H8O2,211.17299,-2.2067,3,173.13,0,266.91644,1,4-[amino(carboxy)methyl]-2-hydroxy-benzoic acid
"InChI=1S/C7H8FN3O4/c8-3-1-11(2-4(9)6(13)14)7(15)10-5(3)12/h1,4H,2,9H2,(H,13,14)(H,10,12,15)",DBWPFHJYSTVBCZ-UHFFFAOYSA-N,FC1=CN(CC(N)C(O)=O)C(=O)NC1=O,C10H11ClO3,217.15599,-4.3497,3,163.88,0,263.16925,0,"2-amino-3-(5-fluoro-2,4-dioxo-pyrimidin-1-yl)propanoic acid"
"InChI=1S/C7H8IN3O4/c8-3-1-11(2-4(9)6(13)14)7(15)10-5(3)12/h1,4H,2,9H2,(H,13,14)(H,10,12,15)",AXXYLTBQIQBTES-UHFFFAOYSA-N,IC1=CN(CC(N)C(O)=O)C(=O)NC1=O,C10H11N3O3S,325.06198,-3.3127,3,185.50,0,244.76033,1,"2-amino-3-(5-iodo-2,4-dioxo-pyrimidin-1-yl)propanoic acid"
"InChI=1S/C14H14O3.Na/c1-9(14(15)16)10-3-4-12-8-13(17-2)6-5-11(12)7-10;/h3-9H,1-2H3,(H,15,16);/q;+1/p-1",CDBRNDSHEYLDJV-UHFFFAOYSA-M,[Na+].O(C)c1cc2c(cc(cc2)C(C(=O)[O-])C)cc1,C10H12O3,252.245,3.4140,3,263.88,0,288.11987,0,sodium;2-(6-methoxy-2-naphthyl)propanoate
"InChI=1S/C14H14O3/c1-9(14(15)16)10-3-4-12-8-13(17-2)6-5-11(12)7-10/h3-9H,1-2H3,(H,15,16)",CMWTZPSULFXXJA-UHFFFAOYSA-N,O(C)c1cc2c(cc(cc2)C(C(O)=O)C)cc1,C12H7Cl3O2,230.263,3.2930,3,224.25,0,125.22147,1,2-(6-methoxy-2-naphthyl)propanoic acid
"InChI=1S/C9H10O3/c1-9(12,8(10)11)7-5-3-2-4-6-7/h2-6,12H,1H3,(H,10,11)",NWCHELUCVWSRRS-UHFFFAOYSA-N,OC(C(O)=O)(C)c1ccccc1,C13H10N2O3S,166.17599,1.4170,2,149.75,0,111.49052,1,2-hydroxy-2-phenyl-propanoic acid
"InChI=1S/C19H33NO2S/c1-15(2)8-6-9-16(3)10-7-11-17(4)12-13-23-14-18(20)19(21)22-5/h8,10,12,18H,6-7,9,11,13-14,20H2,1-5H3",SIEHZFPZQUNSAS-UHFFFAOYSA-N,S(CC(N)C(OC)=O)CC=C(CCC=C(CCC=C(C)C)C)C,C13H18O2,339.54401,2.3600,12,336.88,0,196.04643,0,"methyl 2-amino-3-[(2<I>Z</I>,6<I>E</I>)-3,7,11-trimethyldodeca-2,6,10-trienyl]sulfanyl-propanoate"
"InChI=1S/C28H42N4O2/c33-27-17-15-21-23(11-9-13-25(21)31-27)29-19-7-5-3-1-2-4-6-8-20-30-24-12-10-14-26-22(24)16-18-28(34)32-26/h15-18,23-24,29-30H,1-14,19-20H2,(H,31,33)(H,32,34)",CKFAWHBPSZAYLS-UHFFFAOYSA-N,O=C1NC2=C(C=C1)C(NCCCCCCCCCCNC1C3=C(NC(=O)C=C3)CCC1)CCC2,C13H9Cl3N2O,466.66998,4.8520,13,452.00,0,179.08633,1,"5-[10-[(2-oxo-5,6,7,8-tetrahydro-1<I>H</I>-quinolin-5-yl)amino]decylamino]-5,6,7,8-tetrahydro-1<I>H</I>-quinolin-2-one"
"InChI=1S/C30H46N4O2/c35-29-19-17-23-25(13-11-15-27(23)33-29)31-21-9-7-5-3-1-2-4-6-8-10-22-32-26-14-12-16-28-24(26)18-20-30(36)34-28/h17-20,25-26,31-32H,1-16,21-22H2,(H,33,35)(H,34,36)",VFFGYPZORQBRNM-UHFFFAOYSA-N,O=C1NC2=C(C=C1)C(NCCCCCCCCCCCCNC1C3=C(NC(=O)C=C3)CCC1)CCC2,C14H12O3,494.724,5.7360,15,479.50,1,175.54173,0,"5-[12-[(2-oxo-5,6,7,8-tetrahydro-1<I>H</I>-quinolin-5-yl)amino]dodecylamino]-5,6,7,8-tetrahydro-1<I>H</I>-quinolin-2-one"
"InChI=1S/C11H21N3O4/c1-7(9(16)14-8(2)12-6-15)13-10(17)18-11(3,4)5/h6-8H,1-5H3,(H,12,15)(H,13,17)(H,14,16)",MNUWNIQGBRBQRE-UHFFFAOYSA-N,O(C(C)(C)C)C(=O)NC(C(=O)NC(NC=O)C)C,C15H12N2O,259.306,0.3970,9,229.25,0,145.85541,1,tert-butyl <I>N</I>-[2-(1-formamidoethylamino)-1-methyl-2-oxo-ethyl]carbamate
"InChI=1S/C20H24N4O2/c1-26-18(25)12-16(15-3-2-4-17(11-15)20(23)24)10-7-13-5-8-14(9-6-13)19(21)22/h2-6,8-9,11,16H,7,10,12H2,1H3,(H3,21,22)(H3,23,24)",PVALLOSAENRPQO-UHFFFAOYSA-N,O(C(=O)CC(CCc1ccc(cc1)C(N)=N)c1cc(ccc1)C(N)=N)C,C4H4KNO4S,352.43799,3.0090,9,343.13,1,295.08392,1,methyl 3-(3-carbamimidoylphenyl)-5-(4-carbamimidoylphenyl)pentanoate
"InChI=1S/C21H21NO6/c1-22-7-6-11-8-15-16(27-10-26-15)9-13(11)18(22)19-12-4-5-14(24-2)20(25-3)17(12)21(23)28-19/h4-5,8-9,18-19H,6-7,10H2,1-3H3",JZUTXVTYJDCMDU-UHFFFAOYSA-N,O1C(c2c(c(OC)c(OC)cc2)C1=O)C1N(CCc2c1cc1OCOc1c2)C,C7H6O3,383.39999,2.8797,3,340.25,0,190.15315,0,"6,7-dimethoxy-3-(6-methyl-7,8-dihydro-5<I>H</I>-[1,3]dioxolo[4,5-g]isoquinolin-5-yl)-3<I>H</I>-isobenzofuran-1-one"
"InChI=1S/C7H11NO4/c8-7(6(11)12)2-1-4(3-7)5(9)10/h4H,1-3,8H2,(H,9,10)(H,11,12)",YFYNOWXBIBKGHB-UHFFFAOYSA-N,OC(=O)C1(N)CC(CC1)C(O)=O,C7H8N4O2,173.168,-2.9087,2,131.75,0,218.43004,1,"1-aminocyclopentane-1,3-dicarboxylic acid"
"InChI=1S/C20H21NO4/c1-21-11-10-12-6-4-5-7-13(12)17(21)18-14-8-9-15(23-2)19(24-3)16(14)20(22)25-18/h4-9,17-18H,10-11H2,1-3H3",BRBCQMQGBAPLOK-UHFFFAOYSA-N,O1C(c2c(c(OC)c(OC)cc2)C1=O)C1N(CCc2c1cccc2)C,C8H10N4O2,339.39099,3.1377,3,316.25,0,146.00729,0,"6,7-dimethoxy-3-(2-methyl-3,4-dihydro-1<I>H</I>-isoquinolin-1-yl)-3<I>H</I>-isobenzofuran-1-one"