InChI,Key,smiles,Formula,Weight,logP(o/w),b_rotN,vol,lip_violation,ASA_P,Natural,ChemicalName
"InChI=1S/C17H27N3O17P2/c1-6(22)18-10-13(26)11(24)7(4-21)35-16(10)36-39(31,32)37-38(29,30)33-5-8-12(25)14(27)15(34-8)20-3-2-9(23)19-17(20)28/h2-3,7-8,10-16,21,24-27H,4-5H2,1H3,(H,18,22)(H,29,30)(H,31,3 2)(H,19,23,28)",LFTYTUAZOPRMMI-UHFFFAOYSA-N,P(OC1OC(CO)C(O)C(O)C1NC(=O)C)(OP(OCC1OC(N2C=CC(=O)NC2=O)C(O)C1O)(O)=O)(O)=O,C10H12O3,607.35498,-6.7550,11,411.50,3,454.42255,0,"[3-acetamido-4,5-dihydroxy-6-(hydroxymethyl)tetrahydropyran-2-yl] [[5-(2,4-dioxopyrimidin-1-yl)-3,4-dihydroxy-tetrahydrofuran-2-yl]methoxy-hydroxy-phosphoryl] hydrogen phosphate"
"InChI=1S/C17H25N3O18P2/c1-5(21)18-8-10(24)11(25)13(15(27)28)36-16(8)37-40(32,33)38-39(30,31)34-4-6-9(23)12(26)14(35-6)20-3-2-7(22)19-17(20)29/h2-3,6,8-14,16,23-26H,4H2,1H3,(H,18,21)(H,27,28)(H,30,31)( H,32,33)(H,19,22,29)",DZOGQXKQLXAPND-UHFFFAOYSA-N,P(OC1OC(C(O)=O)C(O)C(O)C1NC(=O)C)(OP(OCC1OC(N2C=CC(=O)NC2=O)C(O)C1O)(O)=O)(O)=O,C12H7Cl3O2,621.33801,-6.5560,11,417.75,3,532.91809,1,"5-acetamido-6-[[[5-(2,4-dioxopyrimidin-1-yl)-3,4-dihydroxy-tetrahydrofuran-2-yl]methoxy-hydroxy-phosphoryl]oxy-hydroxy-phosphoryl]oxy-3,4-dihydroxy-tetrahydropyran-2-carboxylic acid"
"InChI=1S/C20H31N3O19P2/c1-7(18(30)31)38-16-12(21-8(2)25)19(40-9(5-24)14(16)28)41-44(35,36)42-43(33,34)37-6-10-13(27)15(29)17(39-10)23-4-3-11(26)22-20(23)32/h3-4,7,9-10,12-17,19,24,27-29H,5-6H2,1-2H3,( H,21,25)(H,30,31)(H,33,34)(H,35,36)(H,22,26,32)",NQBRVZNDBBMBLJ-UHFFFAOYSA-N,P(OC1OC(CO)C(O)C(OC(C(O)=O)C)C1NC(=O)C)(OP(OCC1OC(N2C=CC(=O)NC2=O)C(O)C1O)(O)=O)(O)=O,C13H10N2O3S,679.41797,-6.1760,14,463.00,3,494.26093,0,"2-[3-acetamido-2-[[[5-(2,4-dioxopyrimidin-1-yl)-3,4-dihydroxy-tetrahydrofuran-2-yl]methoxy-hydroxy-phosphoryl]oxy-hydroxy-phosphoryl]oxy-5-hydroxy-6-(hydroxymethyl)tetrahydropyran-4-yl]oxypropanoic ac id"
"InChI=1S/C31H53N3O19P2/c1-3-4-5-6-7-8-9-10-11-12-19(37)15-23(39)51-28-24(32-18(2)36)30(50-20(16-35)26(28)41)52-55(46,47)53-54(44,45)48-17-21-25(40)27(42)29(49-21)34-14-13-22(38)33-31(34)43/h13-14,19-2 1,24-30,35,37,40-42H,3-12,15-17H2,1-2H3,(H,32,36)(H,44,",TZSJGZGYQDNRRX-UHFFFAOYSA-N,P(OC1OC(CO)C(O)C(OC(=O)CC(O)CCCCCCCCCCC)C1NC(=O)C)(OP(OCC1OC(N2C=CC(=O)NC2=O)C(O)C1O)(O)=O)(O)=O,C13H18O2,833.71497,-1.8440,25,636.63,3,411.98425,1,"[3-acetamido-2-[[[5-(2,4-dioxopyrimidin-1-yl)-3,4-dihydroxy-tetrahydrofuran-2-yl]methoxy-hydroxy-phosphoryl]oxy-hydroxy-phosphoryl]oxy-5-hydroxy-6-(hydroxymethyl)tetrahydropyran-4-yl] 3-hydroxytetrade canoate"
"InChI=1S/C29H51N3O18P2/c1-2-3-4-5-6-7-8-9-10-11-17(34)14-21(36)48-26-22(30)28(47-18(15-33)24(26)38)49-52(43,44)50-51(41,42)45-16-19-23(37)25(39)27(46-19)32-13-12-20(35)31-29(32)40/h12-13,17-19,22-28,3 3-34,37-39H,2-11,14-16,30H2,1H3,(H,41,42)(H,43,44)(H,31",ZFPNNOXCEDQJQS-UHFFFAOYSA-N,P(OC1OC(CO)C(O)C(OC(=O)CC(O)CCCCCCCCCCC)C1N)(OP(OCC1OC(N2C=CC(=O)NC2=O)C(O)C1O)(O)=O)(O)=O,C13H9Cl3N2O,791.67798,-2.0130,23,601.75,3,480.65421,1,"[3-amino-2-[[[5-(2,4-dioxopyrimidin-1-yl)-3,4-dihydroxy-tetrahydrofuran-2-yl]methoxy-hydroxy-phosphoryl]oxy-hydroxy-phosphoryl]oxy-5-hydroxy-6-(hydroxymethyl)tetrahydropyran-4-yl] 3-hydroxytetradecano ate"
"InChI=1S/C9H13N2O9P/c12-5-1-2-11(9(15)10-5)8-7(14)6(13)4(20-8)3-19-21(16,17)18/h1-2,4,6-8,13-14H,3H2,(H,10,12,15)(H2,16,17,18)",DJJCXFVJDGTHFX-UHFFFAOYSA-N,P(OCC1OC(N2C=CC(=O)NC2=O)C(O)C1O)(O)(O)=O,C14H12O3,324.18201,-3.7350,4,226.38,1,327.72711,0,"[5-(2,4-dioxopyrimidin-1-yl)-3,4-dihydroxy-tetrahydrofuran-2-yl]methyl dihydrogen phosphate"
"InChI=1S/C55H91O4P/c1-45(2)23-13-24-46(3)25-14-26-47(4)27-15-28-48(5)29-16-30-49(6)31-17-32-50(7)33-18-34-51(8)35-19-36-52(9)37-20-38-53(10)39-21-40-54(11)41-22-42-55(12)43-44-59-60(56,57)58/h23,25,27 ,29,31,33,35,37,39,41,43H,13-22,24,26,28,30,32,34,36,38",UFPHFKCTOZIAFY-UHFFFAOYSA-N,P(OCC=C(CCC=C(CCC=C(CCC=C(CCC=C(CCC=C(CCC=C(CCC=C(CCC=C(CCC=C(CCC=C(C)C)C)C)C)C)C)C)C)C)C)C)(O)(O)=O,C15H12N2O,847.30298,8.1630,33,886.00,2,257.40189,1,"[(2<I>E</I>,6<I>E</I>,10<I>E</I>,14<I>E</I>,18<I>E</I>,22<I>E</I>,26<I>E</I>,30<I>Z</I>,34<I>Z</I>,38<I>Z</I>)-3,7,11,15,19,23,27,31,35,39,43-undecamethyltetratetraconta-2,6,10,14,18,22,26,30,34,38,42 -undecaenyl] dihydrogen phosphate"
"InChI=1S/C4H4N2O2/c7-3-1-2-5-4(8)6-3/h1-2H,(H2,5,6,7,8)",ISAKRJDGNUQOIC-UHFFFAOYSA-N,O=C1NC(=O)NC=C1,C4H4KNO4S,112.088,-1.0900,0,92.50,0,164.25633,0,"1<I>H</I>-pyrimidine-2,4-dione"
"InChI=1S/C5H4N4O3/c10-3-1-2(7-4(11)6-1)8-5(12)9-3/h(H4,6,7,8,9,10,11,12)",LEHOTFFKMJEONL-UHFFFAOYSA-N,O=C1NC(=O)NC=2NC(=O)NC1=2,C7H6O3,168.112,-1.6920,0,127.88,0,291.07108,1,"7,9-dihydro-3<I>H</I>-purine-2,6,8-trione"
"InChI=1S/CH4N2O/c2-1(3)4/h(H4,2,3,4)",XSQUKJJJFZCRTK-UHFFFAOYSA-N,O=C(N)N,C7H8N4O2,60.056,-1.5250,0,47.25,0,193.88837,1,urea
"InChI=1S/C9H12N2O6/c12-3-4-6(14)7(15)8(17-4)11-2-1-5(13)10-9(11)16/h1-2,4,6-8,12,14-15H,3H2,(H,10,13,16)",DRTQHJPVMGBUCF-UHFFFAOYSA-N,O1C(CO)C(O)C(O)C1N1C=CC(=O)NC1=O,C8H10N4O2,244.20299,-2.8480,2,190.38,0,243.95885,0,"1-[3,4-dihydroxy-5-(hydroxymethyl)tetrahydrofuran-2-yl]pyrimidine-2,4-dione"
"InChI=1S/C6H6N2O2/c9-6(10)2-1-5-3-7-4-8-5/h1-4H,(H,7,8)(H,9,10)",LOIYMIARKYCTBW-UHFFFAOYSA-N,OC(=O)\C=C\c1nc[nH]c1,C8H14ClN5,138.12599,-0.2420,2,126.38,0,178.21231,1,(<I>E</I>)-3-(1<I>H</I>-imidazol-4-yl)prop-2-enoic acid
"InChI=1S/C40H44N4O16/c45-33(46)5-1-17-21(9-37(53)54)29-14-27-19(3-7-35(49)50)22(10-38(55)56)30(43-27)15-28-20(4-8-36(51)52)24(12-40(59)60)32(44-28)16-31-23(11-39(57)58)18(2-6-34(47)48)26(42-31)13-25(1 7)41-29/h41-44H,1-16H2,(H,45,46)(H,47,48)(H,49,50)(H,51",HUHWZXWWOFSFKF-UHFFFAOYSA-N,OC(=O)Cc1c2[nH]c(Cc3[nH]c(Cc4[nH]c(Cc5[nH]c(C2)c(CCC(O)=O)c5CC(O)=O)c(CCC(O)=O)c4CC(O)=O)c(CC(O)=O)c3CCC(O)=O)c1CCC(O)=O,C8H8O3,836.80396,1.3460,20,654.00,3,622.9032,0,"3-[7,12,18-tris(2-carboxyethyl)-3,8,13,17-tetrakis(carboxymethyl)-5,10,15,20,21,22,23,24-octahydroporphyrin-2-yl]propanoic acid"
"InChI=1S/C9H15N2O15P3/c12-5-1-2-11(9(15)10-5)8-7(14)6(13)4(24-8)3-23-28(19,20)26-29(21,22)25-27(16,17)18/h1-2,4,6-8,13-14H,3H2,(H,19,20)(H,21,22)(H,10,12,15)(H2,16,17,18)",PGAVKCOVUIYSFO-UHFFFAOYSA-N,P(OCC1OC(N2C=CC(=O)NC2=O)C(O)C1O)(OP(OP(O)(O)=O)(O)=O)(O)=O,C8H9NO2,484.13998,-5.4990,8,290.25,2,485.6452,1,"[[5-(2,4-dioxopyrimidin-1-yl)-3,4-dihydroxy-tetrahydrofuran-2-yl]methoxy-hydroxy-phosphoryl] phosphono hydrogen phosphate"
"InChI=1S/C5H11NO2/c1-3(2)4(6)5(7)8/h3-4H,6H2,1-2H3,(H,7,8)",KZSNJWFQEVHDMF-UHFFFAOYSA-N,OC(=O)C(N)C(C)C,C9H10O3,117.14799,-2.0857,2,104.25,0,132.41266,1,2-amino-3-methyl-butanoic acid
"InChI=1S/C51H72O2/c1-38(2)20-13-21-39(3)22-14-23-40(4)24-15-25-41(5)26-16-27-42(6)28-17-29-43(7)30-18-31-44(8)32-19-33-45(9)36-37-47-46(10)50(52)48-34-11-12-35-49(48)51(47)53/h11-12,20,22,24,26,28,30, 32,34-36H,13-19,21,23,25,27,29,31,33,37H2,1-10H3",LXKDFTDVRVLXFY-UHFFFAOYSA-N,O=C1c2c(cccc2)C(=O)C(C)=C1CC=C(CCC=C(CCC=C(CCC=C(CCC=C(CCC=C(CCC=C(CCC=C(C)C)C)C)C)C)C)C)C,C9H8O2,717.13501,8.6920,23,773.13,2,112.72486,0,"2-methyl-3-[(2<I>E</I>,6<I>E</I>,10<I>E</I>,14<I>E</I>,18<I>E</I>,22<I>E</I>,26<I>E</I>)-3,7,11,15,19,23,27,31-octamethyldotriaconta-2,6,10,14,18,22,26,30-octaenyl]naphthalene-1,4-dione"
"InChI=1S/C5H4N4O2/c10-4-2-3(7-1-6-2)8-5(11)9-4/h1H,(H3,6,7,8,9,10,11)",LRFVTYWOQMYALW-UHFFFAOYSA-N,O=C1NC(=O)Nc2nc[nH]c12,C10H11ClO3,152.11299,-1.5530,0,121.50,0,235.38443,1,"3,7-dihydropurine-2,6-dione"
"InChI=1S/C10H12N4O6/c15-1-3-5(16)6(17)9(20-3)14-2-11-4-7(14)12-10(19)13-8(4)18/h2-3,5-6,9,15-17H,1H2,(H2,12,13,18,19)",UBORTCNDUKBEOP-UHFFFAOYSA-N,O1C(CO)C(O)C(O)C1n1c2NC(=O)NC(=O)c2nc1,C10H11N3O3S,284.228,-2.9530,2,215.38,0,280.07733,0,"9-[3,4-dihydroxy-5-(hydroxymethyl)tetrahydrofuran-2-yl]-3<I>H</I>-purine-2,6-dione"
"InChI=1S/C10H13N4O9P/c15-5-3(1-22-24(19,20)21)23-9(6(5)16)14-2-11-4-7(14)12-10(18)13-8(4)17/h2-3,5-6,9,15-16H,1H2,(H2,19,20,21)(H2,12,13,17,18)",DCTLYFZHFGENCW-UHFFFAOYSA-N,P(OCC1OC(n2c3NC(=O)NC(=O)c3nc2)C(O)C1O)(O)(O)=O,C10H12O3,364.207,-3.8400,4,252.63,2,400.96204,1,"[5-(2,6-dioxo-3<I>H</I>-purin-9-yl)-3,4-dihydroxy-tetrahydrofuran-2-yl]methyl dihydrogen phosphate"
"InChI=1S/C10H15N4O15P3/c15-5-3(1-26-31(22,23)29-32(24,25)28-30(19,20)21)27-9(6(5)16)14-2-11-4-7(14)12-10(18)13-8(4)17/h2-3,5-6,9,15-16H,1H2,(H,22,23)(H,24,25)(H2,19,20,21)(H2,12,13,17,18)",CAEFEWVYEZABLA-UHFFFAOYSA-N,P(OCC1OC(n2c3NC(=O)NC(=O)c3nc2)C(O)C1O)(OP(OP(O)(O)=O)(O)=O)(O)=O,C12H7Cl3O2,524.16498,-5.6040,8,315.75,3,488.55545,1,"[[5-(2,6-dioxo-3<I>H</I>-purin-9-yl)-3,4-dihydroxy-tetrahydrofuran-2-yl]methoxy-hydroxy-phosphoryl] phosphono hydrogen phosphate"
"InChI=1S/C5H12O11P2/c6-3(1-15-17(9,10)11)5(8)4(7)2-16-18(12,13)14/h3,5-6,8H,1-2H2,(H2,9,10,11)(H2,12,13,14)",YAHZABJORDUQGO-UHFFFAOYSA-N,P(OCC(O)C(O)C(=O)COP(O)(O)=O)(O)(O)=O,C13H10N2O3S,310.08798,-4.4630,8,183.13,2,388.49271,0,"(2,3-dihydroxy-4-oxo-5-phosphonooxy-pentyl) dihydrogen phosphate"
"InChI=1S/C7H16O13P2/c8-3(1-19-21(13,14)15)5(10)7(12)6(11)4(9)2-20-22(16,17)18/h3,5-8,10-12H,1-2H2,(H2,13,14,15)(H2,16,17,18)",OKHXOUGRECCASI-UHFFFAOYSA-N,P(OCC(O)C(O)C(O)C(O)C(=O)COP(O)(O)=O)(O)(O)=O,C13H18O2,370.13998,-5.6090,10,225.13,2,447.85181,1,"(2,3,4,5-tetrahydroxy-6-oxo-7-phosphonooxy-heptyl) dihydrogen phosphate"
"InChI=1S/C6H9NO2/c8-6(9)5-3-1-2-4-7-5/h1-4H2,(H,8,9)",GEJXSVNGWOSZPC-UHFFFAOYSA-N,OC(=O)C1=NCCCC1,C13H9Cl3N2O,127.143,0.0210,1,115.38,0,128.30653,0,"2,3,4,5-tetrahydropyridine-6-carboxylic acid"
"InChI=1S/C5H12O7P2/c1-5(2)3-4-11-14(9,10)12-13(6,7)8/h1,3-4H2,2H3,(H,9,10)(H2,6,7,8)",NUHSROFQTUXZQQ-UHFFFAOYSA-N,P(OCCC(C)=C)(OP(O)(O)=O)(O)=O,C14H12O3,246.092,-1.3790,6,160.50,0,265.75369,1,3-methylbut-3-enyl phosphono hydrogen phosphate
"InChI=1S/C5H7NO2/c7-5(8)4-2-1-3-6-4/h3-4H,1-2H2,(H,7,8)",DWAKNKKXGALPNW-UHFFFAOYSA-N,OC(=O)C1N=CCC1,C15H12N2O,113.116,-0.1000,1,100.00,0,137.53001,1,"3,4-dihydro-2<I>H</I>-pyrrole-2-carboxylic acid"
"InChI=1S/C11H18N2O7/c12-6(10(17)18)2-1-3-7(11(19)20)13-8(14)4-5-9(15)16/h6-7H,1-5,12H2,(H,13,14)(H,15,16)(H,17,18)(H,19,20)",GLXUWZBUPATPBR-UHFFFAOYSA-N,OC(=O)C(NC(=O)CCC(O)=O)CCCC(N)C(O)=O,C4H4KNO4S,290.272,-3.6387,11,233.25,1,384.30109,0,2-amino-6-(3-carboxypropanoylamino)heptanedioic acid
"InChI=1S/C6H8O7/c7-3(8)1-2(5(10)11)4(9)6(12)13/h2,4,9H,1H2,(H,7,8)(H,10,11)(H,12,13)",ODBLHEXUDAPZAU-UHFFFAOYSA-N,OC(C(CC(O)=O)C(O)=O)C(O)=O,C7H6O3,192.123,-1.7350,5,137.38,0,279.00287,1,"1-hydroxypropane-1,2,3-tricarboxylic acid"
"InChI=1S/C15H14ClNO4S/c1-11-5-7-14(8-6-11)22(20,21)17(10-15(18)19)13-4-2-3-12(16)9-13/h2-9H,10H2,1H3,(H,18,19)",JLTQNQSARCUPGB-UHFFFAOYSA-N,Clc1cc(N(S(=O)(=O)c2ccc(cc2)C)CC(O)=O)ccc1,C7H8N4O2,339.79898,2.7380,5,271.25,0,127.31477,0,2-[3-chloro-<I>N</I>-(p-tolylsulfonyl)anilino]acetic acid
"InChI=1S/C30H27N3O9S/c31-18(30(41)42)8-9-20(34)33-19(29(40)32-11-21(35)36)12-43-28-24-16-7-6-14-3-1-2-13-4-5-15(23(16)22(13)14)10-17(24)25(37)26(38)27(28)39/h1-7,10,18-19,27-28,39H,8-9,11-12,31H2,(H,3 2,40)(H,33,34)(H,35,36)(H,41,42)",DUWOHLGCRJLRRU-UHFFFAOYSA-N,S(CC(NC(=O)CCC(N)C(O)=O)C(=O)NCC(O)=O)C1c2c(cc3c4c5c(ccc24)cccc5cc3)C(=O)C(=O)C1O,C8H10N4O2,605.62396,-1.1297,13,502.88,3,363.47485,1,"2-amino-5-[[2-(carboxymethylamino)-1-[(9-hydroxy-7,8-dioxo-9,10-dihydrobenzo[a]pyren-10-yl)sulfanylmethyl]-2-oxo-ethyl]amino]-5-oxo-pentanoic acid"
"InChI=1S/C22H36O3/c1-2-3-6-9-20(23)13-12-18-14-17-15-19(16-17)21(18)10-7-4-5-8-11-22(24)25/h4,7,12-13,17-21,23H,2-3,5-6,8-11,14-16H2,1H3,(H,24,25)",ZIWNJZLXPXFNGN-UHFFFAOYSA-N,OC(CCCCC)C=CC1CC2CC(C2)C1CC=CCCCC(O)=O,C8H8O3,348.52698,4.9250,12,337.50,1,157.15158,1,(<I>E</I>)-7-[3-[(<I>E</I>)-3-hydroxyoct-1-enyl]norpinan-2-yl]hept-5-enoic acid
"InChI=1S/C15H14O6/c16-8-4-11(18)9-6-13(20)15(21-14(9)5-8)7-1-2-10(17)12(19)3-7/h1-5,13,15-20H,6H2",PFTAWBLQPZVEMU-UHFFFAOYSA-N,O1c2c(CC(O)C1c1cc(O)c(O)cc1)c(O)cc(O)c2,C8H9NO2,290.271,1.9790,1,245.38,0,212.8801,0,"2-(3,4-dihydroxyphenyl)chromane-3,5,7-triol"
"InChI=1S/C11H13ClN2/c12-11-4-1-7(6-13-11)9-5-8-2-3-10(9)14-8/h1,4,6,8-10,14H,2-3,5H2",NLPRAJRHRHZCQQ-UHFFFAOYSA-N,Clc1ncc(cc1)C1C2NC(C1)CC2,C9H10O3,208.692,2.2600,1,175.00,0,55.311146,1,3-(6-chloro-3-pyridyl)-7-azabicyclo[2.2.1]heptane
"InChI=1S/C22H35NO2/c1-14-7-6-9-17(23(14)3)11-12-19-18-10-5-4-8-16(18)13-20-21(19)15(2)25-22(20)24/h11-12,14-21H,4-10,13H2,1-3H3",FMPNFDSPHNUFOS-UHFFFAOYSA-N,O1C(C2C(CC3C(CCCC3)C2C=CC2N(C)C(CCC2)C)C1=O)C,C9H8O2,345.52698,4.5040,2,331.50,0,70.059395,1,"4-[(<I>E</I>)-2-(1,6-dimethyl-2-piperidyl)vinyl]-3-methyl-3<I>a</I>,4,4<I>a</I>,5,6,7,8,8<I>a</I>,9,9<I>a</I>-decahydro-3<I>H</I>-benzo[f]isobenzofuran-1-one"
"InChI=1S/C10H15N/c1-9(11-2)8-10-6-4-3-5-7-10/h3-7,9,11H,8H2,1-2H3",MYWUZJCMWCOHBA-UHFFFAOYSA-N,N(C(Cc1ccccc1)C)C,C10H11ClO3,149.237,2.2370,3,162.75,0,38.743534,0,<I>N</I>-methyl-1-phenyl-propan-2-amine
"InChI=1S/C5H7N3O5/c6-2(3(9)10)1-8-4(11)7-5(12)13-8/h2H,1,6H2,(H,9,10)(H,7,11,12)",ASNFTDCKZKHJSW-UHFFFAOYSA-N,O1N(CC(N)C(O)=O)C(=O)NC1=O,C12H7Cl3O2,189.127,-4.1697,3,139.50,0,293.26556,1,"2-amino-3-(3,5-dioxo-1,2,4-oxadiazolidin-2-yl)propanoic acid"
"InChI=1S/C10H11N5O2/c1-10(11,9(16)17)7-4-2-6(3-5-7)8-12-14-15-13-8/h2-5H,11H2,1H3,(H,16,17)(H,12,13,14,15)",OZBFBAYESADVDX-UHFFFAOYSA-N,OC(=O)C(N)(C)c1ccc(cc1)-c1nn[nH]n1,C13H9Cl3N2O,233.231,-1.8537,3,196.13,0,254.54523,1,2-amino-2-[4-(2<I>H</I>-tetrazol-5-yl)phenyl]propanoic acid
"InChI=1S/C12H22O/c1-10-6-5-8-11(2)7-3-4-9-12(10,11)13/h10,13H,3-9H2,1-2H3",JLPUXFOGCDVKGO-UHFFFAOYSA-N,OC12CCCCC1(CCCC2C)C,C14H12O3,182.30699,3.6590,0,165.00,0,28.233459,0,"4,8<I>a</I>-dimethyldecalin-4<I>a</I>-ol"
"InChI=1S/C6H9NO4/c7-6(5(10)11)1-3(2-6)4(8)9/h3H,1-2,7H2,(H,8,9)(H,10,11)",GGMYWPBNZXRMME-UHFFFAOYSA-N,OC(=O)C1(N)CC(C1)C(O)=O,C15H12N2O,159.14099,-3.3507,2,122.13,0,238.93427,1,"1-aminocyclobutane-1,3-dicarboxylic acid"
"InChI=1S/C8H9Cl2N/c1-5(11)6-3-2-4-7(9)8(6)10/h2-5H,11H2,1H3",CZJMQTZQSNUDNV-UHFFFAOYSA-N,Clc1c(cccc1Cl)C(N)C,C4H4KNO4S,190.073,2.8040,1,156.88,0,49.31134,1,"1-(2,3-dichlorophenyl)ethanamine"
"InChI=1S/C5H12NO5P/c6-4(5(7)8)2-1-3-12(9,10)11/h4H,1-3,6H2,(H,7,8)(H2,9,10,11)",VOROEQBFPPIACJ-UHFFFAOYSA-N,P(O)(O)(=O)CCCC(N)C(O)=O,C7H6O3,197.127,-4.2377,5,136.13,0,273.80408,0,2-amino-5-phosphono-pentanoic acid
"InChI=1S/C8H9NO3/c9-7(8(11)12)5-2-1-3-6(10)4-5/h1-4,7,10H,9H2,(H,11,12)",DQLYTFPAEVJTFM-UHFFFAOYSA-N,Oc1cc(ccc1)C(N)C(O)=O,C7H8N4O2,167.164,-1.8817,2,147.25,0,188.59717,1,2-amino-2-(3-hydroxyphenyl)acetic acid
"InChI=1S/C16H16ClNO2/c17-15-11-6-7-18-9-13(10-4-2-1-3-5-10)12(11)8-14(19)16(15)20/h1-5,8,13,18-20H,6-7,9H2",GHWJEDJMOVUXEC-UHFFFAOYSA-N,Clc1c2c(cc(O)c1O)C(CNCC2)c1ccccc1,C8H10N4O2,289.76199,3.3330,1,254.75,0,120.35081,0,"6-chloro-1-phenyl-2,3,4,5-tetrahydro-1<I>H</I>-3-benzazepine-7,8-diol"
"InChI=1S/C16H25NO/c1-3-9-17(10-4-2)15-7-5-13-6-8-16(18)12-14(13)11-15/h6,8,12,15,18H,3-5,7,9-11H2,1-2H3",BLYMJBIZMIGWFK-UHFFFAOYSA-N,Oc1cc2CC(N(CCC)CCC)CCc2cc1,C8H14ClN5,247.38199,4.1510,5,250.38,0,55.357735,1,3-(dipropylamino)tetralin-6-ol
"InChI=1S/C16H25NO/c1-3-10-17(11-4-2)14-9-8-13-6-5-7-16(18)15(13)12-14/h5-7,14,18H,3-4,8-12H2,1-2H3",ASXGJMSKWNBENU-UHFFFAOYSA-N,Oc1c2CC(N(CCC)CCC)CCc2ccc1,C8H8O3,247.38199,4.1120,5,249.38,0,46.447689,1,3-(dipropylamino)tetralin-5-ol
"InChI=1S/C7H10N2O4/c1-3-4(6(10)9-13-3)2-5(8)7(11)12/h5H,2,8H2,1H3,(H,9,10)(H,11,12)",UUDAMDVQRQNNHZ-UHFFFAOYSA-N,o1nc(O)c(CC(N)C(O)=O)c1C,C8H9NO2,186.16699,-2.9237,3,147.25,0,218.12268,0,2-amino-3-(3-hydroxy-5-methyl-isoxazol-4-yl)propanoic acid
"InChI=1S/C10H11NO4/c1-10(11,9(14)15)7-4-2-6(3-5-7)8(12)13/h2-5H,11H2,1H3,(H,12,13)(H,14,15)",DNCAZYRLRMTVSF-UHFFFAOYSA-N,OC(=O)c1ccc(cc1)C(N)(C(O)=O)C,C9H10O3,209.20099,-1.5267,3,180.00,0,219.78951,1,4-(1-amino-1-carboxy-ethyl)benzoic acid
"InChI=1S/C19H20ClNO2/c1-2-9-21-10-8-14-15(11-17(22)19(23)18(14)20)16(12-21)13-6-4-3-5-7-13/h2-7,11,16,22-23H,1,8-10,12H2",HJWHHQIVUHOBQN-UHFFFAOYSA-N,Clc1c2c(cc(O)c1O)C(CN(CC2)CC=C)c1ccccc1,C10H11N3O3S,329.827,4.2630,3,302.00,0,136.53641,1,"3-allyl-6-chloro-1-phenyl-1,2,4,5-tetrahydro-3-benzazepine-7,8-diol"
"InChI=1S/C7H11NO4/c9-6(10)4-2-1-3-8-5(4)7(11)12/h4-5,8H,1-3H2,(H,9,10)(H,11,12)",PTLWNCBCBZZBJI-UHFFFAOYSA-N,OC(=O)C1CCCNC1C(O)=O,C10H12O3,173.168,-0.4930,2,137.75,0,190.88118,0,"piperidine-2,3-dicarboxylic acid"
"InChI=1S/C10H12N2O/c1-12-9(5-6-10(12)13)8-4-2-3-7-11-8/h2-4,7,9H,5-6H2,1H3",MCWXBYVNZTVRNA-UHFFFAOYSA-N,O=C1N(C)C(CC1)c1ncccc1,C12H7Cl3O2,176.21899,0.4300,1,173.25,0,68.734268,1,1-methyl-5-(2-pyridyl)pyrrolidin-2-one
"InChI=1S/C8H17N2O5P/c11-8(12)7-6-10(4-2-9-7)3-1-5-16(13,14)15/h7,9H,1-6H2,(H,11,12)(H2,13,14,15)",CUVGUPIVTLGRGI-UHFFFAOYSA-N,P(O)(O)(=O)CCCN1CC(NCC1)C(O)=O,C13H10N2O3S,252.207,-2.2310,5,188.50,0,268.85995,0,4-(3-phosphonopropyl)piperazine-2-carboxylic acid
"InChI=1S/C11H16INO2/c1-7(13)4-8-5-11(15-3)9(12)6-10(8)14-2/h5-7H,4,13H2,1-3H3",BGMZUEKZENQUJY-UHFFFAOYSA-N,Ic1cc(OC)c(cc1OC)CC(N)C,C13H18O2,321.15799,2.8840,4,219.88,0,116.89118,1,"1-(4-iodo-2,5-dimethoxy-phenyl)propan-2-amine"
"InChI=1S/C15H19ClO4/c16-12-5-7-13(8-6-12)19-10-4-2-1-3-9-15(11-20-15)14(17)18/h5-8H,1-4,9-11H2,(H,17,18)/p-1",NWSIRTXVYBEURF-UHFFFAOYSA-M,Clc1ccc(OCCCCCCC2(OC2)C(=O)[O-])cc1,C13H9Cl3N2O,297.758,4.0430,9,264.13,0,89.395271,1,2-[6-(4-chlorophenoxy)hexyl]oxirane-2-carboxylate
"InChI=1S/C15H19ClO4/c16-12-5-7-13(8-6-12)19-10-4-2-1-3-9-15(11-20-15)14(17)18/h5-8H,1-4,9-11H2,(H,17,18)",NWSIRTXVYBEURF-UHFFFAOYSA-N,Clc1ccc(OCCCCCCC2(OC2)C(O)=O)cc1,C14H12O3,298.76599,3.9220,9,264.13,0,109.95959,0,2-[6-(4-chlorophenoxy)hexyl]oxirane-2-carboxylic acid
"InChI=1S/C4H8N2O2/c5-3-1-2-6(8)4(3)7/h3,8H,1-2,5H2",HCKUBNLZMKAEIN-UHFFFAOYSA-N,O=C1N(O)CCC1N,C15H12N2O,116.12,-1.3920,0,93.25,0,168.00427,1,3-amino-1-hydroxy-pyrrolidin-2-one
"InChI=1S/C5H6N2O4/c6-4(5(9)10)2-1-3(8)7-11-2/h1,4H,6H2,(H,7,8)(H,9,10)",IRJCBFDCFXCWGO-UHFFFAOYSA-N,o1nc(O)cc1C(N)C(O)=O,C4H4KNO4S,158.11299,-3.2687,2,122.00,0,248.19684,0,2-amino-2-(3-hydroxyisoxazol-5-yl)acetic acid
"InChI=1S/C28H40N2O5/c1-20(2)28(19-29,22-17-25(33-6)27(35-8)26(18-22)34-7)13-9-14-30(3)15-12-21-10-11-23(31-4)24(16-21)32-5/h10-11,16-18,20H,9,12-15H2,1-8H3",XQLWNAFCTODIRK-UHFFFAOYSA-N,O(C)c1c(OC)cc(cc1OC)C(C(C)C)(CCCN(CCc1cc(OC)c(OC)cc1)C)C#N,C7H6O3,484.63699,5.0942,15,463.25,1,238.82744,1,"5-[2-(3,4-dimethoxyphenyl)ethyl-methyl-amino]-2-isopropyl-2-(3,4,5-trimethoxyphenyl)pentanenitrile"
"InChI=1S/C36H39N3O6/c1-25-31(34(40)44-3)33(27-12-10-17-30(24-27)39(42)43)32(26(2)37-25)35(41)45-23-11-20-38-21-18-36(19-22-38,28-13-6-4-7-14-28)29-15-8-5-9-16-29/h4-10,12-17,24,33,37H,11,18-23H2,1-3H3",SVJMLYUFVDMUHP-UHFFFAOYSA-N,O(C(=O)C=1C(C(C(OC)=O)=C(NC=1C)C)c1cc([N+](=O)[O-])ccc1)CCCN1CCC(CC1)(c1ccccc1)c1ccccc1,C8H10N4O2,609.72296,7.4760,12,552.38,2,197.96904,0,"<I>O</I>5-[3-(4,4-diphenyl-1-piperidyl)propyl] <I>O</I>3-methyl 2,6-dimethyl-4-(3-nitrophenyl)-1,4-dihydropyridine-3,5-dicarboxylate"
"InChI=1S/C9H13NO3/c1-13-9-4-6(8(12)5-10)2-3-7(9)11/h2-4,8,11-12H,5,10H2,1H3",YNYAYWLBAHXHLL-UHFFFAOYSA-N,O(C)c1cc(ccc1O)C(O)CN,C8H14ClN5,183.207,0.2720,3,165.00,0,184.89845,1,4-(2-amino-1-hydroxy-ethyl)-2-methoxy-phenol
"InChI=1S/C19H21ClN2S/c1-21-8-10-22(11-9-21)17-12-14-4-2-3-5-18(14)23-19-7-6-15(20)13-16(17)19/h2-7,13,17H,8-12H2,1H3",XRYLGRGAWQSVQW-UHFFFAOYSA-N,Clc1cc2c(Sc3c(CC2N2CCN(CC2)C)cccc3)cc1,C8H8O3,344.91,4.3800,1,309.00,0,65.268677,0,"1-(3-chloro-5,6-dihydrobenzo[b][1]benzothiepin-5-yl)-4-methyl-piperazine"
"InChI=1S/C23H34BrN3O3/c1-22(2,27-21(29)13-24)16-7-10-23(3,11-8-16)26-14-17(28)15-30-20-6-4-5-19-18(20)9-12-25-19/h4-6,9,12,16-17,25-26,28H,7-8,10-11,13-15H2,1-3H3,(H,27,29)",KNGWXFIRAISQAP-UHFFFAOYSA-N,BrCC(=O)NC(C)(C)C1CCC(NCC(O)COc2c3c([nH]cc3)ccc2)(CC1)C,C8H9NO2,480.44699,4.0870,10,388.75,0,213.96509,1,2-bromo-<I>N</I>-[1-[4-[[2-hydroxy-3-(1<I>H</I>-indol-4-yloxy)propyl]amino]-4-methyl-cyclohexyl]-1-methyl-ethyl]acetamide
"InChI=1S/C21H27NO/c1-2-14-22(15-13-17-7-4-3-5-8-17)19-11-12-20-18(16-19)9-6-10-21(20)23/h3-10,19,23H,2,11-16H2,1H3",DEYFWGXTPWNADC-UHFFFAOYSA-N,Oc1c2CCC(N(CCc3ccccc3)CCC)Cc2ccc1,C9H10O3,309.453,5.0330,6,314.50,0,44.154228,1,2-[2-phenylethyl(propyl)amino]tetralin-5-ol
"InChI=1S/C19H21NO2/c1-2-9-20-10-8-15-11-18(21)19(22)12-16(15)17(13-20)14-6-4-3-5-7-14/h2-7,11-12,17,21-22H,1,8-10,13H2",QBUVZVXIRYFENV-UHFFFAOYSA-N,Oc1cc2c(cc1O)CCN(CC2c1ccccc1)CC=C,C9H8O2,295.38199,3.7120,3,285.88,0,146.7628,0,"3-allyl-5-phenyl-1,2,4,5-tetrahydro-3-benzazepine-7,8-diol"