InChI,Key,smiles,Formula,Weight,logP(o/w),b_rotN,vol,lip_violation,ASA_P,Natural,ChemicalName
"InChI=1S/C14H20Br2N2/c1-18(12-5-3-2-4-6-12)9-10-7-11(15)8-13(16)14(10)17/h7-8,12H,2-6,9,17H2,1H3",OJGDCBLYJGHCIH-UHFFFAOYSA-N,Brc1cc(Br)cc(CN(C)C2CCCCC2)c1N,C8H14ClN5,376.13599,4.9280,3,268.38,0,60.346676,1,"2,4-dibromo-6-[[cyclohexyl(methyl)amino]methyl]aniline"
"InChI=1S/C17H20BrNO/c1-19(2)12-13-20-17(14-6-4-3-5-7-14)15-8-10-16(18)11-9-15/h3-11,17H,12-13H2,1-2H3",NUNIWXHYABYXKF-UHFFFAOYSA-N,Brc1ccc(cc1)C(OCCN(C)C)c1ccccc1,C8H9NO2,334.25699,4.5800,6,291.88,0,54.905762,1,"2-[(4-bromophenyl)-phenyl-methoxy]-<I>N</I>,<I>N</I>-dimethyl-ethanamine"
"InChI=1S/C16H13BrO2/c17-10-12-8-9-15(16(18)19-12)14-7-3-5-11-4-1-2-6-13(11)14/h1-7,10,15H,8-9H2",BYUCSFWXCMTYOI-UHFFFAOYSA-N,BrC=C1OC(=O)C(CC1)c1c2c(ccc1)cccc2,C9H10O3,317.18201,4.2910,1,258.63,0,51.404312,0,(6<I>Z</I>)-6-(bromomethylene)-3-(1-naphthyl)tetrahydropyran-2-one
"InChI=1S/C14H22BrN3O2/c1-4-18(5-2)7-6-17-14(19)10-8-11(15)12(16)9-13(10)20-3/h8-9H,4-7,16H2,1-3H3,(H,17,19)",GIYAQDDTCWHPPL-UHFFFAOYSA-N,Brc1cc(C(=O)NCCN(CC)CC)c(OC)cc1N,C9H8O2,344.25299,1.9160,8,284.38,0,150.2484,1,4-amino-5-bromo-<I>N</I>-[2-(diethylamino)ethyl]-2-methoxy-benzamide
"InChI=1S/C6H11BrN2O2/c1-3(2)4(7)5(10)9-6(8)11/h3-4H,1-2H3,(H3,8,9,10,11)",CMCCHHWTTBEZNM-UHFFFAOYSA-N,BrC(C(C)C)C(=O)NC(=O)N,C10H11ClO3,223.06999,0.8760,4,153.88,0,218.26831,1,2-bromo-<I>N</I>-carbamoyl-3-methyl-butanamide
"InChI=1S/C21H23BrFNO2/c22-18-7-5-17(6-8-18)21(26)11-14-24(15-12-21)13-1-2-20(25)16-3-9-19(23)10-4-16/h3-10,26H,1-2,11-15H2",RKLNONIVDFXQRX-UHFFFAOYSA-N,Brc1ccc(cc1)C1(O)CCN(CC1)CCCC(=O)c1ccc(F)cc1,C10H11N3O3S,420.32199,4.8040,6,347.75,0,82.09967,0,4-[4-(4-bromophenyl)-4-hydroxy-1-piperidyl]-1-(4-fluorophenyl)butan-1-one
"InChI=1S/C22H26O4/c1-14-15(2)22(26)20(16(3)21(14)25)18(17-10-6-4-7-11-17)12-8-5-9-13-19(23)24/h4,6-7,10-11,18H,5,8-9,12-13H2,1-3H3,(H,23,24)",ZBVKEHDGYSLCCC-UHFFFAOYSA-N,O=C1C(C(CCCCCC(O)=O)c2ccccc2)=C(C)C(=O)C(C)=C1C,C10H12O3,354.44598,3.7400,8,335.38,0,153.5502,1,"7-phenyl-7-(2,4,5-trimethyl-3,6-dioxo-cyclohexa-1,4-dien-1-yl)heptanoic acid"
"InChI=1S/C3H6BrNO4/c4-3(1-6,2-7)5(8)9/h6-7H,1-2H2",LVDKZNITIUWNER-UHFFFAOYSA-N,BrC([N+](=O)[O-])(CO)CO,C12H7Cl3O2,199.98799,0.3600,3,103.38,0,231.99245,0,"2-bromo-2-nitro-propane-1,3-diol"
"InChI=1S/C9H5Br2NO/c10-6-4-7(11)9(13)8-5(6)2-1-3-12-8/h1-4,13H",ZDASUJMDVPTNTF-UHFFFAOYSA-N,Brc1cc(Br)c2c(nccc2)c1O,C13H9Cl3N2O,302.953,3.4270,0,193.00,0,56.972363,0,"5,7-dibromoquinolin-8-ol"
"InChI=1S/C25H25N3O5/c1-17(2)32-21-11-7-8-12-22(21)33-23-14-13-19(15-27-23)26-16-20(25(30)31-3)28-24(29)18-9-5-4-6-10-18/h4-17,26H,1-3H3,(H,28,29)",IPMZFJPPFVFLFE-UHFFFAOYSA-N,O(c1ccccc1OC(C)C)c1ncc(NC=C(NC(=O)c2ccccc2)C(OC)=O)cc1,C14H12O3,447.491,3.9497,11,431.13,0,125.69485,1,methyl (<I>E</I>)-2-benzamido-3-[[6-(2-isopropoxyphenoxy)-3-pyridyl]amino]prop-2-enoate
"InChI=1S/C15H9F6N5OS/c1-7-12(28-25-23-7)13(27)22-8-2-4-9(5-3-8)26-11(15(19,20)21)6-10(24-26)14(16,17)18/h2-6H,1H3,(H,22,27)",XPRZIORDEVHURQ-UHFFFAOYSA-N,s1nnc(C)c1C(=O)Nc1ccc(-n2nc(cc2C(F)(F)F)C(F)(F)F)cc1,C15H12N2O,421.32498,2.9425,6,308.50,0,294.92361,0,"<I>N</I>-[4-[3,5-bis(trifluoromethyl)pyrazol-1-yl]phenyl]-4-methyl-thiadiazole-5-carboxamide"
"InChI=1S/C13H13NO2S/c1-11-7-9-13(10-8-11)17(15,16)14-12-5-3-2-4-6-12/h2-10,14H,1H3",VLVCWODDMDGANW-UHFFFAOYSA-N,S(=O)(=O)(Nc1ccccc1)c1ccc(cc1)C,C4H4KNO4S,247.31799,2.9530,3,219.88,0,82.654762,1,4-methyl-<I>N</I>-phenyl-benzenesulfonamide
"InChI=1S/C12H11N3/c1-2-4-10-9(3-1)5-6-11(15-10)12-13-7-8-14-12/h1-6H,7-8H2,(H,13,14)",OSUVWJGCKQEMHK-UHFFFAOYSA-N,n1c2c(ccc1C=1NCCN=1)cccc2,C7H6O3,197.241,1.4000,1,196.00,0,99.20005,1,"2-(4,5-dihydro-1<I>H</I>-imidazol-2-yl)quinoline"
"InChI=1S/C20H25NO2/c1-6-19(4,5)20(13-9-10-14(2)3)17(22)15-11-7-8-12-16(15)21-18(20)23/h6-8,10-12H,1,9,13H2,2-5H3,(H,21,23)",UPPUDWBXIPRGSX-UHFFFAOYSA-N,O=C1c2c(NC(=O)C1(C(C=C)(C)C)CCC=C(C)C)cccc2,C7H8N4O2,311.42499,3.7020,5,280.63,0,91.991158,0,"3-(1,1-dimethylallyl)-3-(4-methylpent-3-enyl)-1<I>H</I>-quinoline-2,4-dione"
"InChI=1S/C7H13NO3S2/c1-7(2,13)6(11)8-4(3-12)5(9)10/h4,12-13H,3H2,1-2H3,(H,8,11)(H,9,10)",VUAFHZCUKUDDBC-UHFFFAOYSA-N,SC(C(=O)NC(C(O)=O)CS)(C)C,C8H10N4O2,223.317,1.1580,5,167.38,0,234.54628,1,2-[(2-methyl-2-sulfanyl-propanoyl)amino]-3-sulfanyl-propanoic acid
"InChI=1S/C18H24N5O8P/c1-3-5-11(24)22-16-13-17(20-8-19-16)23(9-21-13)18-15(30-12(25)6-4-2)14-10(29-18)7-28-32(26,27)31-14/h8-10,14-15,18H,3-7H2,1-2H3,(H,26,27)(H,19,20,22,24)",CJGYSWNGNKCJSB-UHFFFAOYSA-N,P1(OC2C(OC(n3c4ncnc(NC(=O)CCC)c4nc3)C2OC(=O)CCC)CO1)(O)=O,C8H14ClN5,469.39099,-0.0349,9,379.13,1,259.61807,0,"[6-[6-(butanoylamino)purin-9-yl]-2-hydroxy-2-oxo-4<I>a</I>,6,7,7<I>a</I>-tetrahydro-4<I>H</I>-furo[3,2-d][1,3,2]dioxaphosphinin-7-yl] butanoate"
"InChI=1S/C14H22N2O3/c1-2-3-9-11-12(17)15-14(19)16(13(11)18)10-7-5-4-6-8-10/h10-11H,2-9H2,1H3,(H,15,17,19)",DVEQCIBLXRSYPH-UHFFFAOYSA-N,O=C1N(C2CCCCC2)C(=O)NC(=O)C1CCCC,C8H8O3,266.341,2.4970,4,242.50,0,126.9202,1,"5-butyl-1-cyclohexyl-hexahydropyrimidine-2,4,6-trione"
"InChI=1S/C14H16N4/c1-10(2)8-11(3)16-18-14-13-7-5-4-6-12(13)9-15-17-14/h4-9H,1-3H3,(H,17,18)",DQGFCLJXYFXXIJ-UHFFFAOYSA-N,n1ncc2c(cccc2)c1NN=C(C=C(C)C)C,C9H10O3,240.31,5.3850,3,242.13,0,79.127151,1,"<I>N</I>-[(E)-1,3-dimethylbut-2-enylideneamino]phthalazin-1-amine"
"InChI=1S/C24H34O4/c1-22-10-7-17(25)13-16(22)4-5-20-19(22)8-11-23(2)18(9-12-24(20,23)27)15-3-6-21(26)28-14-15/h3,6,14,16-20,25,27H,4-5,7-13H2,1-2H3",QEEBRPGZBVVINN-UHFFFAOYSA-N,O1C=C(C=CC1=O)C1CCC2(O)C3C(CCC12C)C1(C(CC(O)CC1)CC3)C,C9H8O2,386.53198,4.1610,1,318.13,0,129.90231,0,"5-(3,14-dihydroxy-10,13-dimethyl-1,2,3,4,5,6,7,8,9,11,12,15,16,17-tetradecahydrocyclopenta[a]phenanthren-17-yl)pyran-2-one"
"InChI=1S/C18H29NO4/c1-18(2,3)19-11-14(20)12-22-16-8-4-5-9-17(16)23-13-15-7-6-10-21-15/h4-5,8-9,14-15,19-20H,6-7,10-13H2,1-3H3",AKLNLVOZXMQGSI-UHFFFAOYSA-N,O1CCCC1COc1ccccc1OCC(O)CNC(C)(C)C,C10H11ClO3,323.43298,2.3847,9,303.38,0,98.670113,1,1-(tert-butylamino)-3-[2-(tetrahydrofuran-2-ylmethoxy)phenoxy]propan-2-ol
"InChI=1S/C12H17NO3/c1-2-3-8-16-11-6-4-10(5-7-11)9-12(14)13-15/h4-7,15H,2-3,8-9H2,1H3,(H,13,14)",MXJWRABVEGLYDG-UHFFFAOYSA-N,O(CCCC)c1ccc(cc1)CC(=O)NO,C10H11N3O3S,223.27199,2.3450,7,214.75,0,142.67604,1,2-(4-butoxyphenyl)ethanehydroxamic acid
"InChI=1S/C17H25NO4/c1-20-13-11-15(21-2)17(16(12-13)22-3)14(19)7-6-10-18-8-4-5-9-18/h11-12H,4-10H2,1-3H3",OWYLAEYXIQKAOL-UHFFFAOYSA-N,O(C)c1cc(OC)cc(OC)c1C(=O)CCCN1CCCC1,C10H12O3,307.38998,2.5100,8,295.75,0,131.7572,0,"4-pyrrolidin-1-yl-1-(2,4,6-trimethoxyphenyl)butan-1-one"
"InChI=1S/C6H15N5/c1-2-3-4-10-6(9)11-5(7)8/h2-4H2,1H3,(H6,7,8,9,10,11)",XSEUMFJMFFMCIU-UHFFFAOYSA-N,N(CCCC)C(NC(N)=N)=N,C12H7Cl3O2,157.22099,1.1140,6,148.38,1,211.68976,1,1-butyl-3-carbamimidoyl-guanidine
"InChI=1S/C16H29N3O14S2/c1-7(22)18-12-13(23)14(33-35(28,29)30)11(6-21)32-16(12)31-10-4-8(19-9(10)5-20)15(24)17-2-3-34(25,26)27/h8-14,16,19-21,23H,2-6H2,1H3,(H,17,24)(H,18,22)(H,25,26,27)(H,28,29,30)/p+ 1",RPNZWZDLNYCCIG-UHFFFAOYSA-O,S(O)(=O)(=O)CCNC(=O)C1[NH2+]C(CO)C(OC2OC(CO)C(OS(O)(=O)=O)C(O)C2NC(=O)C)C1,C13H10N2O3S,552.55499,-5.3240,13,372.63,3,429.65997,0,2-[[4-[3-acetamido-4-hydroxy-6-(hydroxymethyl)-5-sulfooxy-tetrahydropyran-2-yl]oxy-5-(hydroxymethyl)pyrrolidin-1-ium-2-carbonyl]amino]ethanesulfonic acid
"InChI=1S/C16H29N3O14S2/c1-7(22)18-12-13(23)14(33-35(28,29)30)11(6-21)32-16(12)31-10-4-8(19-9(10)5-20)15(24)17-2-3-34(25,26)27/h8-14,16,19-21,23H,2-6H2,1H3,(H,17,24)(H,18,22)(H,25,26,27)(H,28,29,30)",RPNZWZDLNYCCIG-UHFFFAOYSA-N,S(O)(=O)(=O)CCNC(=O)C1NC(CO)C(OC2OC(CO)C(OS(O)(=O)=O)C(O)C2NC(=O)C)C1,C13H18O2,551.547,-5.3240,13,372.63,3,450.25415,1,2-[[4-[3-acetamido-4-hydroxy-6-(hydroxymethyl)-5-sulfooxy-tetrahydropyran-2-yl]oxy-5-(hydroxymethyl)pyrrolidine-2-carbonyl]amino]ethanesulfonic acid
"InChI=1S/C17H20N2O5S/c1-2-3-9-19-14-10-12(17(20)21)11-15(25(18,22)23)16(14)24-13-7-5-4-6-8-13/h4-8,10-11,19H,2-3,9H2,1H3,(H,20,21)(H2,18,22,23)",MAEIEVLCKWDQJH-UHFFFAOYSA-N,S(=O)(=O)(N)c1cc(cc(NCCCC)c1Oc1ccccc1)C(O)=O,C13H9Cl3N2O,364.422,2.7350,8,302.25,0,227.37149,1,3-(butylamino)-4-phenoxy-5-sulfamoyl-benzoic acid
"InChI=1S/C19H27N5O3/c1-4-6-17(25)23-7-5-8-24(10-9-23)19-21-14-12-16(27-3)15(26-2)11-13(14)18(20)22-19/h11-12H,4-10H2,1-3H3,(H2,20,21,22)",RHLJLALHBZGAFM-UHFFFAOYSA-N,O(C)c1cc2c(nc(nc2N)N2CCCN(CC2)C(=O)CCC)cc1OC,C14H12O3,373.457,1.1697,6,348.75,0,213.70447,0,"1-[4-(4-amino-6,7-dimethoxy-quinazolin-2-yl)-1,4-diazepan-1-yl]butan-1-one"
"InChI=1S/C14H20N2O2/c1-14(2,3)16-9-12(17)10-18-13-7-5-4-6-11(13)8-15/h4-7,12,16-17H,9-10H2,1-3H3",VCVQSRCYSKKPBA-UHFFFAOYSA-N,O(CC(O)CNC(C)(C)C)c1ccccc1C#N,C15H12N2O,248.32599,1.7660,7,242.63,0,114.91718,1,2-[3-(tert-butylamino)-2-hydroxy-propoxy]benzonitrile
"InChI=1S/C18H28N2O/c1-4-5-12-20-13-7-6-11-16(20)18(21)19-17-14(2)9-8-10-15(17)3/h8-10,16H,4-7,11-13H2,1-3H3,(H,19,21)",LEBVLXFERQHONN-UHFFFAOYSA-N,O=C(Nc1c(cccc1C)C)C1N(CCCC1)CCCC,C4H4KNO4S,288.435,4.0320,6,288.75,0,20.401096,0,"1-butyl-<I>N</I>-(2,6-dimethylphenyl)piperidine-2-carboxamide"
"InChI=1S/C14H22ClNO2/c1-10-5-6-12(15)13(7-10)18-9-11(17)8-16-14(2,3)4/h5-7,11,16-17H,8-9H2,1-4H3",HQIRNZOQPUAHHV-UHFFFAOYSA-N,Clc1ccc(cc1OCC(O)CNC(C)(C)C)C,C7H6O3,271.78799,3.0330,6,248.63,0,51.720947,1,1-(tert-butylamino)-3-(2-chloro-5-methyl-phenoxy)propan-2-ol
"InChI=1S/C21H31N5O2/c27-18-16-21(6-1-2-7-21)17-19(28)26(18)11-4-3-10-24-12-14-25(15-13-24)20-22-8-5-9-23-20/h5,8-9H,1-4,6-7,10-17H2",QWCRAEMEVRGPNT-UHFFFAOYSA-N,O=C1N(CCCCN2CCN(CC2)c2ncccn2)C(=O)CC2(C1)CCCC2,C8H10N4O2,385.51199,0.8090,6,358.88,0,117.87694,0,"8-[4-(4-pyrimidin-2-ylpiperazin-1-yl)butyl]-8-azaspiro[4.5]decane-7,9-dione"
"InChI=1S/C6H14O6S2/c1-13(7,8)11-5-3-4-6-12-14(2,9)10/h3-6H2,1-2H3",COVZYZSDYWQREU-UHFFFAOYSA-N,S(OCCCCOS(=O)(=O)C)(=O)(=O)C,C8H14ClN5,246.304,-0.2220,7,171.63,0,164.31747,1,4-methylsulfonyloxybutyl methanesulfonate
"InChI=1S/C10H16N2O3/c1-4-6(3)10(5-2)7(13)11-9(15)12-8(10)14/h6H,4-5H2,1-3H3,(H2,11,12,13,14,15)",ZRIHAIZYIMGOAB-UHFFFAOYSA-N,O=C1NC(=O)NC(=O)C1(C(CC)C)CC,C8H8O3,212.24899,1.6850,3,167.63,0,154.91147,0,"5-ethyl-5-sec-butyl-hexahydropyrimidine-2,4,6-trione"
"InChI=1S/C18H30N2O2/c1-3-5-12-20(13-6-4-2)14-7-15-22-18(21)16-8-10-17(19)11-9-16/h8-11H,3-7,12-15,19H2,1-2H3",HQFWVSGBVLEQGA-UHFFFAOYSA-N,O(C(=O)c1ccc(N)cc1)CCCN(CCCC)CCCC,C8H9NO2,306.44998,4.2880,12,310.38,0,111.92205,1,3-(dibutylamino)propyl 4-aminobenzoate
"InChI=1S/C11H16N2O3/c1-4-5-11(6-7(2)3)8(14)12-10(16)13-9(11)15/h4,7H,1,5-6H2,2-3H3,(H2,12,13,14,15,16)",UZVHFVZFNXBMQJ-UHFFFAOYSA-N,O=C1NC(=O)NC(=O)C1(CC(C)C)CC=C,C9H10O3,224.25999,1.4800,4,176.25,0,174.80943,1,"5-allyl-5-isobutyl-hexahydropyrimidine-2,4,6-trione"
"InChI=1S/C11H15NO2/c1-2-3-8-14-11(13)9-4-6-10(12)7-5-9/h4-7H,2-3,8,12H2,1H3",IUWVALYLNVXWKX-UHFFFAOYSA-N,O(C(=O)c1ccc(N)cc1)CCCC,C9H8O2,193.246,2.5720,5,192.75,0,102.74036,0,butyl 4-aminobenzoate
"InChI=1S/C15H12O5/c16-10-3-4-11(14(19)8-10)12(17)5-1-9-2-6-13(18)15(20)7-9/h1-8,16,18-20H",AYMYWHCQALZEGT-UHFFFAOYSA-N,Oc1cc(O)ccc1C(=O)C=Cc1cc(O)c(O)cc1,C10H11ClO3,272.25598,2.9030,3,244.25,0,185.08028,1,"(<I>E</I>)-1-(2,4-dihydroxyphenyl)-3-(3,4-dihydroxyphenyl)prop-2-en-1-one"
"InChI=1S/C23H27N/c1-23(2,3)21-14-12-18(13-15-21)16-24(4)17-20-10-7-9-19-8-5-6-11-22(19)20/h5-15H,16-17H2,1-4H3",ABJKWBDEJIDSJZ-UHFFFAOYSA-N,N(Cc1c2c(ccc1)cccc2)(Cc1ccc(cc1)C(C)(C)C)C,C10H11N3O3S,317.47598,6.4620,5,329.13,1,26.544817,0,1-(4-tert-butylphenyl)-<I>N</I>-methyl-<I>N</I>-(1-naphthylmethyl)methanamine
"InChI=1S/C21H41N5O12/c22-2-1-8(28)19(34)26-7-3-6(24)17(37-20-11(25)15(32)13(30)9(4-23)35-20)18(12(7)29)38-21-16(33)14(31)10(5-27)36-21/h6-18,20-21,27-33H,1-5,22-25H2,(H,26,34)",XEQLFNPSYWZPOW-UHFFFAOYSA-N,O1C(CN)C(O)C(O)C(N)C1OC1C(OC2OC(CO)C(O)C2O)C(O)C(NC(=O)C(O)CCN)CC1N,C10H12O3,555.58197,-7.8843,11,417.88,3,517.77075,1,"4-amino-<I>N</I>-[5-amino-4-[3-amino-6-(aminomethyl)-4,5-dihydroxy-tetrahydropyran-2-yl]oxy-3-[3,4-dihydroxy-5-(hydroxymethyl)tetrahydrofuran-2-yl]oxy-2-hydroxy-cyclohexyl]-2-hydroxy-butanamide"
"InChI=1S/C16H29NO5/c1-4-6-7-13(5-2)11-17-14(18)10-12(3)22-16(21)9-8-15(19)20/h12-13H,4-11H2,1-3H3,(H,17,18)(H,19,20)",CQONVBIGUJWUFE-UHFFFAOYSA-N,O(C(CC(=O)NCC(CCCC)CC)C)C(=O)CCC(O)=O,C12H7Cl3O2,315.41,2.4980,14,294.63,0,178.62227,1,4-[3-(2-ethylhexylamino)-1-methyl-3-oxo-propoxy]-4-oxo-butanoic acid
"InChI=1S/C28H38NO4/c1-3-4-16-32-25-14-10-21(11-15-25)19-29(2)23-12-13-24(29)18-26(17-23)33-28(31)27(20-30)22-8-6-5-7-9-22/h5-11,14-15,23-24,26-27,30H,3-4,12-13,16-20H2,1-2H3/q+1",ALVDDLOWVXJXCD-UHFFFAOYSA-N,O(C(=O)C(CO)c1ccccc1)C1CC2[N+](C(C1)CC2)(Cc1ccc(OCCCC)cc1)C,C13H18O2,452.61499,5.2220,11,416.75,1,115.00285,1,[8-[(4-butoxyphenyl)methyl]-8-methyl-8-azoniabicyclo[3.2.1]octan-3-yl] 3-hydroxy-2-phenyl-propanoate
"InChI=1S/C24H26O7/c1-14(2)4-6-17-12-15(5-11-19(17)26)13-24(23(29)30-3)20(21(27)22(28)31-24)16-7-9-18(25)10-8-16/h4-5,7-12,20-21,25-27H,6,13H2,1-3H3",ADDMECXPIZDHLQ-UHFFFAOYSA-N,O1C(Cc2cc(CC=C(C)C)c(O)cc2)(C(OC)=O)C(C(O)C1=O)c1ccc(O)cc1,C13H9Cl3N2O,426.465,3.1920,7,374.00,0,228.66501,0,methyl 4-hydroxy-2-[[4-hydroxy-3-(3-methylbut-2-enyl)phenyl]methyl]-3-(4-hydroxyphenyl)-5-oxo-tetrahydrofuran-2-carboxylate
"InChI=1S/C17H17FN2O3/c1-12(20(22)17(19)21)5-6-13-3-2-4-16(11-13)23-15-9-7-14(18)8-10-15/h2-12,22H,1H3,(H2,19,21)",UAIYNMRLUHHRMF-UHFFFAOYSA-N,Fc1ccc(Oc2cc(ccc2)C=CC(N(O)C(=O)N)C)cc1,C14H12O3,316.332,3.4210,6,290.00,0,141.22037,1,1-[(<I>E</I>)-3-[3-(4-fluorophenoxy)phenyl]-1-methyl-allyl]-1-hydroxy-urea
"InChI=1S/C27H38N7O12PS/c28-23-18(25(40)33-27(29)32-23)4-3-12-34(21(36)15-48-14-20(35)30-11-1-2-13-46-47(43,44)45)17-7-5-16(6-8-17)24(39)31-19(26(41)42)9-10-22(37)38/h5-8,19H,1-4,9-15H2,(H,30,35)(H,31, 39)(H,37,38)(H,41,42)(H2,43,44,45)(H5,28,29,32,33,40)",WIBNWPBCQGWSJV-UHFFFAOYSA-N,S(CC(=O)N(CCCC=1C(=O)N=C(NC=1N)N)c1ccc(cc1)C(=O)NC(CCC(O)=O)C(O)=O)CC(=O)NCCCCOP(O)(O)=O,C15H12N2O,715.67798,-0.8960,24,568.88,3,688.09558,1,"2-[[4-[3-(2,6-diamino-4-oxo-1<I>H</I>-pyrimidin-5-yl)propyl-[2-[2-oxo-2-(4-phosphonooxybutylamino)ethyl]sulfanylacetyl]amino]benzoyl]amino]pentanedioic acid"
"InChI=1S/C27H24N4O6/c1-14-29-21-7-4-16-3-2-15(10-20(16)24(21)25(34)30-14)12-28-18-5-6-19-17(11-18)13-31(26(19)35)22(27(36)37)8-9-23(32)33/h2-7,10-11,22,28H,8-9,12-13H2,1H3,(H,32,33)(H,36,37)(H,29,30,3 4)",BRVFNEZMTRVUGW-UHFFFAOYSA-N,O=C1N(Cc2c1ccc(NCc1cc3c4c(NC(=NC4=O)C)ccc3cc1)c2)C(CCC(O)=O)C(O)=O,C4H4KNO4S,500.51099,3.2890,8,450.75,1,312.36612,0,2-[5-[(3-methyl-1-oxo-4<I>H</I>-benzo[f]quinazolin-9-yl)methylamino]-1-oxo-isoindolin-2-yl]pentanedioic acid
"InChI=1S/C27H37N3O2/c1-6-16-29-18-21(5)30(19-20(29)4)26(24-10-9-11-25(31)17-24)22-12-14-23(15-13-22)27(32)28(7-2)8-3/h6,9-15,17,20-21,26,31H,1,7-8,16,18-19H2,2-5H3",LBLDMHBSVIVJPM-UHFFFAOYSA-N,Oc1cc(ccc1)C(N1CC(N(CC1C)CC=C)C)c1ccc(cc1)C(=O)N(CC)CC,C7H6O3,435.612,4.8820,9,423.13,0,149.46906,1,"4-[(4-allyl-2,5-dimethyl-piperazin-1-yl)-(3-hydroxyphenyl)methyl]-<I>N</I>,<I>N</I>-diethyl-benzamide"
"InChI=1S/C26H55N2O7P/c1-6-7-8-9-10-11-12-13-14-15-16-17-18-19-21-32-23-25(35-26(29)27-2)24-34-36(30,31)33-22-20-28(3,4)5/h25H,6-24H2,1-5H3,(H-,27,29,30,31)",FNFHZBKBDFRYHS-UHFFFAOYSA-N,P(OCC(OC(=O)NC)COCCCCCCCCCCCCCCCC)(OCC[N+](C)(C)C)(=O)[O-],C7H8N4O2,538.70697,4.4405,27,495.00,1,203.41576,0,[3-hexadecoxy-2-(methylcarbamoyloxy)propyl] 2-(trimethylammonio)ethyl phosphate
"InChI=1S/C26H55N2O7P/c1-6-7-8-9-10-11-12-13-14-15-16-17-18-19-21-32-23-25(35-26(29)27-2)24-34-36(30,31)33-22-20-28(3,4)5/h25H,6-24H2,1-5H3,(H-,27,29,30,31)/p+1",FNFHZBKBDFRYHS-UHFFFAOYSA-O,P(OCC(OC(=O)NC)COCCCCCCCCCCCCCCCC)(OCC[N+](C)(C)C)(O)=O,C8H10N4O2,539.71497,4.4905,27,495.00,1,248.44328,1,2-[[3-hexadecoxy-2-(methylcarbamoyloxy)propoxy]-hydroxy-phosphoryl]oxyethyl-trimethyl-ammonium
"InChI=1S/C34H46N4/c1-27-25-31(35)29-19-13-15-21-33(29)37(27)23-17-11-9-7-5-3-4-6-8-10-12-18-24-38-28(2)26-32(36)30-20-14-16-22-34(30)38/h13-16,19-22,25-26,35-36H,3-12,17-18,23-24H2,1-2H3/p+2",AJMJJYUKTZBJKQ-UHFFFAOYSA-P,[n+]1(c2c(cccc2)c(N)cc1C)CCCCCCCCCCCCCC[n+]1c2c(cccc2)c(N)cc1C,C8H14ClN5,512.78601,10.2440,15,524.63,2,141.23961,1,1-[14-(4-amino-2-methyl-quinolin-1-ium-1-yl)tetradecyl]-2-methyl-quinolin-1-ium-4-amine
"InChI=1S/C34H67NO3/c1-3-5-7-9-11-13-15-17-19-21-23-25-27-29-33(37)32(31-36)35-34(38)30-28-26-24-22-20-18-16-14-12-10-8-6-4-2/h27,29,32-33,36-37H,3-26,28,30-31H2,1-2H3,(H,35,38)",YDNKGFDKKRUKPY-UHFFFAOYSA-N,OC(C(NC(=O)CCCCCCCCCCCCCCC)CO)C=CCCCCCCCCCCCCC,C8H8O3,537.914,10.7250,31,560.88,2,129.34497,0,<I>N</I>-[(<I>E</I>)-2-hydroxy-1-(hydroxymethyl)heptadec-3-enyl]hexadecanamide
"InChI=1S/C26H54NO7P/c1-6-7-8-9-10-11-12-13-14-15-16-17-18-19-21-31-23-26(34-25(2)28)24-33-35(29,30)32-22-20-27(3,4)5/h26H,6-24H2,1-5H3",HVAUUPRFYPCOCA-UHFFFAOYSA-N,P(OCC(OC(=O)C)COCCCCCCCCCCCCCCCC)(OCC[N+](C)(C)C)(=O)[O-],C8H9NO2,523.69202,4.7965,26,485.38,1,170.42923,1,(2-acetoxy-3-hexadecoxy-propyl) 2-(trimethylammonio)ethyl phosphate
"InChI=1S/C26H54NO7P/c1-6-7-8-9-10-11-12-13-14-15-16-17-18-19-21-31-23-26(34-25(2)28)24-33-35(29,30)32-22-20-27(3,4)5/h26H,6-24H2,1-5H3/p+1",HVAUUPRFYPCOCA-UHFFFAOYSA-O,P(OCC(OC(=O)C)COCCCCCCCCCCCCCCCC)(OCC[N+](C)(C)C)(O)=O,C9H10O3,524.70001,4.8465,26,485.38,2,168.42993,0,2-[(2-acetoxy-3-hexadecoxy-propoxy)-hydroxy-phosphoryl]oxyethyl-trimethyl-ammonium
"InChI=1S/C28H58NO7P/c1-6-7-8-9-10-11-12-13-14-15-16-17-18-19-20-21-23-33-25-28(36-27(2)30)26-35-37(31,32)34-24-22-29(3,4)5/h28H,6-26H2,1-5H3",ZXCIEWBDUAPBJF-UHFFFAOYSA-N,P(OCC(OC(=O)C)COCCCCCCCCCCCCCCCCCC)(OCC[N+](C)(C)C)(=O)[O-],C9H8O2,551.74597,5.6805,28,514.63,2,170.51834,1,(2-acetoxy-3-octadecoxy-propyl) 2-(trimethylammonio)ethyl phosphate
"InChI=1S/C28H58NO7P/c1-6-7-8-9-10-11-12-13-14-15-16-17-18-19-20-21-23-33-25-28(36-27(2)30)26-35-37(31,32)34-24-22-29(3,4)5/h28H,6-26H2,1-5H3/p+1",ZXCIEWBDUAPBJF-UHFFFAOYSA-O,P(OCC(OC(=O)C)COCCCCCCCCCCCCCCCCCC)(OCC[N+](C)(C)C)(O)=O,C10H11ClO3,552.75397,5.7305,28,515.25,2,185.31255,1,2-[(2-acetoxy-3-octadecoxy-propoxy)-hydroxy-phosphoryl]oxyethyl-trimethyl-ammonium
"InChI=1S/C28H56NO7P/c1-6-7-8-9-10-11-12-13-14-15-16-17-18-19-20-21-23-33-25-28(36-27(2)30)26-35-37(31,32)34-24-22-29(3,4)5/h13-14,28H,6-12,15-26H2,1-5H3",ZBOQHUSCQCEBGK-UHFFFAOYSA-N,P(OCC(OC(=O)C)COCCCCCCCCC=CCCCCCCCC)(OCC[N+](C)(C)C)(=O)[O-],C10H11N3O3S,549.72998,4.7325,27,514.63,2,207.60623,0,[2-acetoxy-3-[(<I>E</I>)-octadec-9-enoxy]propyl] 2-(trimethylammonio)ethyl phosphate
"InChI=1S/C28H56NO7P/c1-6-7-8-9-10-11-12-13-14-15-16-17-18-19-20-21-23-33-25-28(36-27(2)30)26-35-37(31,32)34-24-22-29(3,4)5/h13-14,28H,6-12,15-26H2,1-5H3/p+1",ZBOQHUSCQCEBGK-UHFFFAOYSA-O,P(OCC(OC(=O)C)COCCCCCCCCC=CCCCCCCCC)(OCC[N+](C)(C)C)(O)=O,C10H12O3,550.73798,4.7825,27,514.63,2,223.33604,1,2-[[2-acetoxy-3-[(<I>E</I>)-octadec-9-enoxy]propoxy]-hydroxy-phosphoryl]oxyethyl-trimethyl-ammonium
"InChI=1S/C20H39NO3/c1-3-4-5-6-7-8-9-10-11-12-13-14-15-16-20(24)19(17-22)21-18(2)23/h15-16,19-20,22,24H,3-14,17H2,1-2H3,(H,21,23)",BLTCBVOJNNKFKC-UHFFFAOYSA-N,OC(C(NC(=O)C)CO)C=CCCCCCCCCCCCCC,C12H7Cl3O2,341.53598,4.5040,17,341.38,0,129.35928,0,<I>N</I>-[(<I>E</I>)-2-hydroxy-1-(hydroxymethyl)heptadec-3-enyl]acetamide
"InChI=1S/C20H41NO3/c1-3-4-5-6-7-8-9-10-11-12-13-14-15-16-20(24)19(17-22)21-18(2)23/h19-20,22,24H,3-17H2,1-2H3,(H,21,23)",CRJGESKKUOMBCT-UHFFFAOYSA-N,OC(C(NC(=O)C)CO)CCCCCCCCCCCCCCC,C13H10N2O3S,343.552,5.0980,18,341.38,0,137.79298,1,<I>N</I>-[2-hydroxy-1-(hydroxymethyl)heptadecyl]acetamide
"InChI=1S/C26H21N3O5/c30-20-10-6-18(7-11-20)15-26(34-33)25(32)29-16-23(19-8-12-21(31)13-9-19)27-22(24(29)28-26)14-17-4-2-1-3-5-17/h1-13,16,30-31,33H,14-15H2",HOSWCJDTHOAORT-UHFFFAOYSA-N,O(O)C1(N=C2N(C=C(N=C2Cc2ccccc2)c2ccc(O)cc2)C1=O)Cc1ccc(O)cc1,C13H18O2,455.47,3.9270,6,409.50,0,202.1805,1,"8-benzyl-2-hydroperoxy-6-(4-hydroxyphenyl)-2-[(4-hydroxyphenyl)methyl]imidazo[1,2-a]pyrazin-3-one"
"InChI=1S/C26H51NO3/c1-3-5-7-9-10-11-12-13-14-15-16-18-19-21-25(29)24(23-28)27-26(30)22-20-17-8-6-4-2/h19,21,24-25,28-29H,3-18,20,22-23H2,1-2H3,(H,27,30)",APDLCSPGWPLYEQ-UHFFFAOYSA-N,OC(C(NC(=O)CCCCCCC)CO)C=CCCCCCCCCCCCCC,C13H9Cl3N2O,425.698,7.1890,23,435.25,1,110.32088,0,<I>N</I>-[(<I>E</I>)-2-hydroxy-1-(hydroxymethyl)heptadec-3-enyl]octanamide