InChI,Key,smiles,Formula,Weight,logP(o/w),b_rotN,vol,lip_violation,ASA_P,Natural,ChemicalName
"InChI=1S/C9H17NO4/c1-7(11)14-8(5-9(12)13)6-10(2,3)4/h8H,5-6H2,1-4H3/p+1",RDHQFKQIGNGIED-UHFFFAOYSA-O,O(C(CC(O)=O)C[N+](C)(C)C)C(=O)C,C10H11ClO3,204.246,-0.5450,6,180.13,0,185.23958,1,(2-acetoxy-3-carboxy-propyl)-trimethyl-ammonium
"InChI=1S/C7H8O4/c8-5-3-1-2-4(6(5)9)7(10)11/h1-3,5-6,8-9H,(H,10,11)",INCSWYKICIYAHB-UHFFFAOYSA-N,OC1C(=CC=CC1O)C(O)=O,C10H11N3O3S,156.13699,-0.4970,1,128.38,0,194.08443,0,"5,6-dihydroxycyclohexa-1,3-diene-1-carboxylic acid"
"InChI=1S/C3H9NO/c1-3(5)2-4/h3,5H,2,4H2,1H3",HXKKHQJGJAFBHI-UHFFFAOYSA-N,OC(CN)C,C10H12O3,75.111,-0.8580,1,69.50,0,110.71668,1,1-aminopropan-2-ol
"InChI=1S/C3H8NO5P/c4-1-3(5)2-9-10(6,7)8/h1-2,4H2,(H2,6,7,8)",HIQNVODXENYOFK-UHFFFAOYSA-N,P(OCC(=O)CN)(O)(O)=O,C12H7Cl3O2,169.073,-2.6520,4,109.75,0,262.39868,1,(3-amino-2-oxo-propyl) dihydrogen phosphate
"InChI=1S/C7H9N5/c1-2-12-4-11-5-6(8)9-3-10-7(5)12/h3-4H,2H2,1H3,(H2,8,9,10)",MUIPLRMGAXZWSQ-UHFFFAOYSA-N,n1cnc2n(cnc2c1N)CC,C13H10N2O3S,163.18399,-0.0229,1,153.50,0,163.59038,0,9-ethylpurin-6-amine
"InChI=1S/C6H12O4/c1-3-6(2,10)4(7)5(8)9/h4,7,10H,3H2,1-2H3,(H,8,9)",PDGXJDXVGMHUIR-UHFFFAOYSA-N,OC(C(O)C(O)=O)(CC)C,C13H18O2,148.15799,0.0110,3,118.25,0,148.04482,1,"2,3-dihydroxy-3-methyl-pentanoic acid"
"InChI=1S/C6H13O9P/c7-1-2(8)4(10)6(5(11)3(1)9)15-16(12,13)14/h1-11H,(H2,12,13,14)",INAPMGSXUVUWAF-UHFFFAOYSA-N,P(OC1C(O)C(O)C(O)C(O)C1O)(O)(O)=O,C13H9Cl3N2O,260.13501,-4.3870,2,155.38,1,307.54376,0,"(2,3,4,5,6-pentahydroxycyclohexyl) dihydrogen phosphate"
"InChI=1S/C20H23N7O7/c21-20-25-16-15(18(32)26-20)23-11(7-22-16)8-27(9-28)12-3-1-10(2-4-12)17(31)24-13(19(33)34)5-6-14(29)30/h1-4,9,11,13,23H,5-8H2,(H,24,31)(H,29,30)(H,33,34)(H4,21,22,25,26,32)",AUFGTPPARQZWDO-UHFFFAOYSA-N,O=C1N=C(NC=2NCC(NC1=2)CN(C=O)c1ccc(cc1)C(=O)NC(CCC(O)=O)C(O)=O)N,C14H12O3,473.44598,-0.4760,11,391.88,2,459.96976,1,"2-[[4-[(2-amino-4-oxo-5,6,7,8-tetrahydro-1<I>H</I>-pteridin-6-yl)methyl-formyl-amino]benzoyl]amino]pentanedioic acid"
"InChI=1S/C6H6O4/c7-3-1-4(8)6(10)5(9)2-3/h1-2,7-10H",RDJUHLUBPADHNP-UHFFFAOYSA-N,Oc1c(O)cc(O)cc1O,C15H12N2O,142.11,0.7440,0,110.38,0,173.03455,1,"benzene-1,2,3,5-tetrol"
"InChI=1S/C20H32O5/c1-2-3-6-9-15(21)12-13-17-16(18(22)14-19(17)23)10-7-4-5-8-11-20(24)25/h12-13,16-17,19,23H,2-11,14H2,1H3,(H,24,25)",VXPBDCBTMSKCKZ-UHFFFAOYSA-N,OC1CC(=O)C(CCCCCCC(O)=O)C1C=CC(=O)CCCCC,C4H4KNO4S,352.47098,2.8270,13,334.75,0,169.72546,0,7-[3-hydroxy-5-oxo-2-[(<I>E</I>)-3-oxooct-1-enyl]cyclopentyl]heptanoic acid
"InChI=1S/C19H30O2/c1-18-9-7-13(20)11-12(18)3-4-14-15-5-6-17(21)19(15,2)10-8-16(14)18/h12,14-17,21H,3-11H2,1-2H3",NVKAWKQGWWIWPM-UHFFFAOYSA-N,OC1CCC2C3C(CCC12C)C1(C(CC(=O)CC1)CC3)C,C7H6O3,290.44699,3.6540,0,248.00,0,78.632828,1,"17-hydroxy-10,13-dimethyl-1,2,4,5,6,7,8,9,11,12,14,15,16,17-tetradecahydrocyclopenta[a]phenanthren-3-one"
"InChI=1S/C12H22N2O2/c15-11-7-3-1-5-9-13-12(16)8-4-2-6-10-14-11/h1-10H2,(H,13,16)(H,14,15)",HERSSAVMHCMYSQ-UHFFFAOYSA-N,O=C1NCCCCCC(=O)NCCCCC1,C7H8N4O2,226.31999,1.0200,0,206.63,0,127.94552,0,"1,8-diazacyclotetradecane-2,9-dione"
"InChI=1S/C7H7NO4/c9-6(10)4-2-1-3-5(8-4)7(11)12/h1-2,5H,3H2,(H,9,10)(H,11,12)",UWOCFOFVIBZJGH-UHFFFAOYSA-N,OC(=O)C1N=C(C=CC1)C(O)=O,C8H10N4O2,169.136,-0.5930,2,140.38,0,219.21098,1,"2,3-dihydropyridine-2,6-dicarboxylic acid"
"InChI=1S/C6H8O7/c7-1-2(8)3(9)4(10)5(11)6(12)13/h2-3,7-9H,1H2,(H,12,13)",GJQWCDSAOUMKSE-UHFFFAOYSA-N,OC(C(O)CO)C(=O)C(=O)C(O)=O,C8H14ClN5,192.123,-2.9350,5,141.13,0,259.04251,1,"4,5,6-trihydroxy-2,3-dioxo-hexanoic acid"
"InChI=1S/C7H6O4/c8-5-3-1-2-4(6(5)9)7(10)11/h1-3,8-9H,(H,10,11)",GLDQAMYCGOIJDV-UHFFFAOYSA-N,Oc1c(cccc1O)C(O)=O,C8H8O3,154.121,0.9630,1,128.38,0,164.02513,0,"2,3-dihydroxybenzoic acid"
"InChI=1S/C9H10O4/c10-7-3-1-2-6(9(7)13)4-5-8(11)12/h1-3,10,13H,4-5H2,(H,11,12)",QZDSXQJWBGMRLU-UHFFFAOYSA-N,Oc1c(cccc1O)CCC(O)=O,C8H9NO2,182.175,1.1390,3,158.88,0,144.4606,1,"3-(2,3-dihydroxyphenyl)propanoic acid"
"InChI=1S/C6H10O4/c1-3-6(10,4(2)7)5(8)9/h10H,3H2,1-2H3,(H,8,9)",VUQLHQFKACOHNZ-UHFFFAOYSA-N,OC(C(=O)C)(CC)C(O)=O,C9H10O3,146.142,-0.0760,3,116.00,0,147.98842,0,2-ethyl-2-hydroxy-3-oxo-butanoic acid
"InChI=1S/C5H8O4/c1-3(6)5(2,9)4(7)8/h9H,1-2H3,(H,7,8)",NMDWGEGFJUBKLB-UHFFFAOYSA-N,OC(C(=O)C)(C(O)=O)C,C9H8O2,132.11499,-0.6900,2,101.88,0,150.36174,1,2-hydroxy-2-methyl-3-oxo-butanoic acid
"InChI=1S/C7H7NO5/c8-5(7(12)13)4(6(10)11)2-1-3-9/h1-3H,8H2,(H,10,11)(H,12,13)",KACPVQQHDVBVFC-UHFFFAOYSA-N,OC(=O)/C(=C(\N)/C(O)=O)/C=C/C=O,C10H11ClO3,185.13499,-2.6657,4,150.63,0,283.24561,1,(<I>Z</I>)-2-amino-3-[(<I>E</I>)-3-oxoprop-1-enyl]but-2-enedioic acid
"InChI=1S/C9H17N5O8/c10-8-11-5-3(6(18)12-8)14(22)9(20,7(19)13(5)21)4(17)2(16)1-15/h2-5,7,15-17,19-22H,1H2,(H3,10,11,12,18)",SQDFRPSZAQYREW-UHFFFAOYSA-N,OC1(N(O)C2C(N=C(NC2=O)N)N(O)C1O)C(O)C(O)CO,C10H11N3O3S,323.26199,-5.8130,3,217.38,2,377.80411,0,"2-amino-5,6,7,8-tetrahydroxy-6-(1,2,3-trihydroxypropyl)-3,4<I>a</I>,7,8<I>a</I>-tetrahydropteridin-4-one"
"InChI=1S/C9H15N5O6/c10-9-12-6-4(7(18)13-9)11-3(8(19)14(6)20)5(17)2(16)1-15/h2-3,5,8,11,15-17,19-20H,1H2,(H3,10,12,13,18)",KQZRTOGFDRQBSR-UHFFFAOYSA-N,OC1N(O)C=2N=C(NC(=O)C=2NC1C(O)C(O)CO)N,C10H12O3,289.24799,-4.2810,3,212.38,2,337.60471,1,"2-amino-7,8-dihydroxy-6-(1,2,3-trihydroxypropyl)-3,5,6,7-tetrahydropteridin-4-one"
"InChI=1S/C9H11N5O5/c1-2(15)5(16)3-8(18)14(19)6-4(11-3)7(17)13-9(10)12-6/h4,6,8,18-19H,1H3,(H3,10,12,13,17)",FNUPJNCDWIHIRQ-UHFFFAOYSA-N,OC1N(O)C2N=C(NC(=O)C2N=C1C(=O)C(=O)C)N,C12H7Cl3O2,269.21698,-4.0870,2,210.00,0,315.56296,0,"1-(2-amino-7,8-dihydroxy-4-oxo-3,4<I>a</I>,7,8<I>a</I>-tetrahydropteridin-6-yl)propane-1,2-dione"
"InChI=1S/C9H16N5O15P3/c10-9-12-6-4(7(17)13-9)11-3(8(18)14(6)19)5(16)2(15)1-27-31(23,24)29-32(25,26)28-30(20,21)22/h2,5,8,15-16,18-19H,1H2,(H,23,24)(H,25,26)(H2,20,21,22)(H3,10,12,13,17)",FJABOXLKMYLFAN-UHFFFAOYSA-N,P(OCC(O)C(O)C1=NC2=C(NC(=NC2=O)N)N(O)C1O)(OP(OP(O)(O)=O)(O)=O)(O)=O,C13H10N2O3S,527.16901,-6.3880,9,314.63,3,607.85522,1,"[[3-(2-amino-7,8-dihydroxy-4-oxo-1,7-dihydropteridin-6-yl)-2,3-dihydroxy-propoxy]-hydroxy-phosphoryl] phosphono hydrogen phosphate"
"InChI=1S/C6H7NO4/c7-4(6(10)11)2-1-3-5(8)9/h1-3H,7H2,(H,8,9)(H,10,11)",ZRHONLCTYUYMIQ-UHFFFAOYSA-N,OC(=O)C(N)=CC=CC(O)=O,C13H18O2,157.125,-2.4037,3,130.50,0,246.96025,1,"(2<I>Z</I>,4<I>E</I>)-2-aminohexa-2,4-dienedioic acid"
"InChI=1S/C3H5NO3/c4-2(1-5)3(6)7/h1-2H,4H2,(H,6,7)",XMTCKNXTTXDPJX-UHFFFAOYSA-N,OC(=O)C(N)C=O,C13H9Cl3N2O,103.077,-3.6437,2,80.50,0,208.99942,0,2-amino-3-oxo-propanoic acid
"InChI=1S/C6H7NO3/c7-5(6(9)10)3-1-2-4-8/h1-4H,7H2,(H,9,10)",QCGTZPZKJPTAEP-UHFFFAOYSA-N,OC(=O)C(N)=CC=CC=O,C14H12O3,141.12599,-2.1537,3,124.88,0,206.58008,1,"(2<I>Z</I>,4<I>E</I>)-2-amino-6-oxo-hexa-2,4-dienoic acid"
"InChI=1S/C5H13O7P/c1-5(8,3-6)4(7)2-12-13(9,10)11/h4,6-8H,2-3H2,1H3,(H2,9,10,11)",XMWHRVNVKDKBRG-UHFFFAOYSA-N,P(OCC(O)C(O)(CO)C)(O)(O)=O,C15H12N2O,216.12599,-2.7240,5,139.88,0,240.2883,0,"(2,3,4-trihydroxy-3-methyl-butyl) dihydrogen phosphate"
"InChI=1S/C7H6O6/c8-5(9)3-1-2-4(6(10)11)7(12)13/h1-3H,(H,8,9)(H,10,11)(H,12,13)",SLUDRBHRUDRZJZ-UHFFFAOYSA-N,OC(=O)C(=CC=CC(O)=O)C(O)=O,C4H4KNO4S,186.11899,0.0110,4,151.00,0,284.8721,1,"(3<I>E</I>)-buta-1,3-diene-1,1,4-tricarboxylic acid"
"InChI=1S/C6H5ClO4/c7-6(3-4(8)9)2-1-5(10)11-6/h1-2H,3H2,(H,8,9)",WGZZDRVKIXVYEI-UHFFFAOYSA-N,ClC1(OC(=O)C=C1)CC(O)=O,C7H6O3,176.55499,1.2990,2,125.00,0,219.30048,1,2-(2-chloro-5-oxo-2-furyl)acetic acid
"InChI=1S/C7H12O5/c1-3(2)4(6(9)10)5(8)7(11)12/h3-5,8H,1-2H3,(H,9,10)(H,11,12)",RNQHMTFBUSSBJQ-UHFFFAOYSA-N,OC(C(C(C)C)C(O)=O)C(O)=O,C7H8N4O2,176.168,-0.0150,4,138.00,0,189.25998,0,2-hydroxy-3-isopropyl-butanedioic acid
"InChI=1S/C6H10O6/c7-2-5(10)3(8)1-4(9)6(11)12/h3,5,7-8,10H,1-2H2,(H,11,12)",WPAMZTWLKIDIOP-UHFFFAOYSA-N,OC(C(O)CO)CC(=O)C(O)=O,C8H10N4O2,178.14,-2.4020,5,135.50,0,244.56023,1,"4,5,6-trihydroxy-2-oxo-hexanoic acid"
"InChI=1S/C6H10O4/c1-6(2,3-7)4(8)5(9)10/h7H,3H2,1-2H3,(H,9,10)",PKVVTUWHANFMQC-UHFFFAOYSA-N,OC(=O)C(=O)C(CO)(C)C,C8H14ClN5,146.142,-0.5300,3,115.38,0,152.44263,0,"4-hydroxy-3,3-dimethyl-2-oxo-butanoic acid"
"InChI=1S/C6H8O3/c1-6(2)3-9-5(8)4(6)7/h3H2,1-2H3",HRTOQFBQOFIFEE-UHFFFAOYSA-N,O1CC(C)(C)C(=O)C1=O,C8H8O3,128.127,0.0760,0,106.50,0,118.31168,1,"4,4-dimethyltetrahydrofuran-2,3-dione"
"InChI=1S/C6H12O5/c7-2-4-6(10)3(8)1-5(9)11-4/h3-10H,1-2H2",PMMURAAUARKVCB-UHFFFAOYSA-N,O1C(CO)C(O)C(O)CC1O,C8H9NO2,164.157,-1.9170,1,124.00,0,178.81653,1,"6-(hydroxymethyl)tetrahydropyran-2,4,5-triol"
"InChI=1S/C6H11O6PS/c1-14-3-2-5(7)6(8)4-12-13(9,10)11/h4,8H,2-3H2,1H3,(H2,9,10,11)",YIEMFVNCENFBSD-UHFFFAOYSA-N,S(CCC(=O)/C(/O)=C/OP(O)(O)=O)C,C9H10O3,242.188,-1.0990,6,170.75,0,307.36874,0,[(<I>Z</I>)-2-hydroxy-5-methylsulfanyl-3-oxo-pent-1-enyl] dihydrogen phosphate
"InChI=1S/C9H10O6/c10-6(4-5-8(12)13)2-1-3-7(11)9(14)15/h1-3,11H,4-5H2,(H,12,13)(H,14,15)",RFENOVFRMPRRJI-UHFFFAOYSA-N,OC(=O)CCC(=O)\C=C\C=C(/O)\C(O)=O,C9H8O2,214.17299,0.0900,6,182.00,0,277.39725,1,"(2<I>Z</I>,4<I>E</I>)-2-hydroxy-6-oxo-nona-2,4-dienedioic acid"
"InChI=1S/C5H8O5/c6-3(5(9)10)1-2-4(7)8/h3,6H,1-2H2,(H,7,8)(H,9,10)",HWXBTNAVRSUOJR-UHFFFAOYSA-N,OC(CCC(O)=O)C(O)=O,C10H11ClO3,148.114,-0.7430,4,114.50,0,222.93649,0,2-hydroxypentanedioic acid
"InChI=1S/C3H4O5/c4-1(2(5)6)3(7)8/h1,4H,(H,5,6)(H,7,8)/p-2",ROBFUDYVXSDBQM-UHFFFAOYSA-L,OC(C(=O)[O-])C(=O)[O-],C10H11N3O3S,118.044,-1.0310,2,83.38,0,214.62418,1,2-hydroxypropanedioate
"InChI=1S/C3H4O5/c4-1(2(5)6)3(7)8/h1,4H,(H,5,6)(H,7,8)",ROBFUDYVXSDBQM-UHFFFAOYSA-N,OC(C(O)=O)C(O)=O,C10H12O3,120.06,-1.2730,2,83.38,0,236.15234,1,2-hydroxypropanedioic acid
"InChI=1S/C6H11O9P/c7-3(1-4(8)6(10)11)5(9)2-15-16(12,13)14/h3,5,7,9H,1-2H2,(H,10,11)(H2,12,13,14)",OVPRPPOVAXRCED-UHFFFAOYSA-N,P(OCC(O)C(O)CC(=O)C(O)=O)(O)(O)=O,C12H7Cl3O2,258.11899,-3.2890,7,171.00,0,332.4895,0,"4,5-dihydroxy-2-oxo-6-phosphonooxy-hexanoic acid"
"InChI=1S/C6H10O3/c1-3-4(2)5(7)6(8)9/h4H,3H2,1-2H3,(H,8,9)",JVQYSWDUAOAHFM-UHFFFAOYSA-N,OC(=O)C(=O)C(CC)C,C13H10N2O3S,130.14299,0.7630,3,119.50,0,123.47482,1,3-methyl-2-oxo-pentanoic acid
"InChI=1S/C5H7NO4/c6-4(8)2-1-3(7)5(9)10/h1-2H2,(H2,6,8)(H,9,10)",COJBGNAUUSNXHX-UHFFFAOYSA-N,OC(=O)C(=O)CCC(=O)N,C13H18O2,145.114,-1.7030,4,116.50,0,227.41446,0,"5-amino-2,5-dioxo-pentanoic acid"
"InChI=1S/C5H8O3/c1-3(2)4(6)5(7)8/h3H,1-2H3,(H,7,8)",QHKABHOOEWYVLI-UHFFFAOYSA-N,OC(=O)C(=O)C(C)C,C13H9Cl3N2O,116.116,0.3210,2,102.75,0,128.25418,1,3-methyl-2-oxo-butanoic acid
"InChI=1S/C6H10O7/c7-1-2(8)3(9)4(10)5(11)6(12)13/h2-4,7-10H,1H2,(H,12,13)",VBUYCZFBVCCYFD-UHFFFAOYSA-N,OC(C(O)C(=O)C(O)=O)C(O)CO,C14H12O3,194.13899,-3.0630,5,141.13,0,270.72485,1,"3,4,5,6-tetrahydroxy-2-oxo-hexanoic acid"
"InChI=1S/C5H6O5/c6-3(5(9)10)1-2-4(7)8/h1-2H2,(H,7,8)(H,9,10)",KPGXRSRHYNQIFN-UHFFFAOYSA-N,OC(=O)C(=O)CCC(O)=O,C15H12N2O,146.09799,-0.9690,4,114.50,0,241.15192,0,2-oxopentanedioic acid
"InChI=1S/C26H44N7O18P3S/c1-13(14(2)34)25(39)55-8-7-28-16(35)5-6-29-23(38)20(37)26(3,4)10-48-54(45,46)51-53(43,44)47-9-15-19(50-52(40,41)42)18(36)24(49-15)33-12-32-17-21(27)30-11-31-22(17)33/h11-15,18- 20,24,34,36-37H,5-10H2,1-4H3,(H,28,35)(H,29,38)(H,43,44",PEKYNTFSOBAABV-UHFFFAOYSA-N,S(C(=O)C(C(O)C)C)CCNC(=O)CCNC(=O)C(O)C(COP(OP(OCC1OC(n2c3ncnc(N)c3nc2)C(O)C1OP(O)(O)=O)(O)=O)(O)=O)(C)C,C4H4KNO4S,867.65698,-4.9329,24,619.50,3,655.26752,1,"<I>S</I>-[2-[3-[[4-[[[5-(6-aminopurin-9-yl)-4-hydroxy-3-phosphonooxy-tetrahydrofuran-2-yl]methoxy-hydroxy-phosphoryl]oxy-hydroxy-phosphoryl]oxy-2-hydroxy-3,3-dimethyl-butanoyl]amino]propanoylamino]eth yl] 3-hydroxy-2-methyl-butanethioate"
"InChI=1S/C26H42N7O18P3S/c1-13(14(2)34)25(39)55-8-7-28-16(35)5-6-29-23(38)20(37)26(3,4)10-48-54(45,46)51-53(43,44)47-9-15-19(50-52(40,41)42)18(36)24(49-15)33-12-32-17-21(27)30-11-31-22(17)33/h11-13,15, 18-20,24,36-37H,5-10H2,1-4H3,(H,28,35)(H,29,38)(H,43,44",NHNODHRSCRALBF-UHFFFAOYSA-N,S(C(=O)C(C(=O)C)C)CCNC(=O)CCNC(=O)C(O)C(COP(OP(OCC1OC(n2c3ncnc(N)c3nc2)C(O)C1OP(O)(O)=O)(O)=O)(O)=O)(C)C,C7H6O3,865.64099,-5.0199,24,617.88,3,657.53131,0,"<I>S</I>-[2-[3-[[4-[[[5-(6-aminopurin-9-yl)-4-hydroxy-3-phosphonooxy-tetrahydrofuran-2-yl]methoxy-hydroxy-phosphoryl]oxy-hydroxy-phosphoryl]oxy-2-hydroxy-3,3-dimethyl-butanoyl]amino]propanoylamino]eth yl] 2-methyl-3-oxo-butanethioate"
"InChI=1S/C26H44N7O17P3S/c1-5-14(2)25(38)54-9-8-28-16(34)6-7-29-23(37)20(36)26(3,4)11-47-53(44,45)50-52(42,43)46-10-15-19(49-51(39,40)41)18(35)24(48-15)33-13-32-17-21(27)30-12-31-22(17)33/h12-15,18-20, 24,35-36H,5-11H2,1-4H3,(H,28,34)(H,29,37)(H,42,43)(H,44",LYNVNYDEQMMNMZ-UHFFFAOYSA-N,S(C(=O)C(CC)C)CCNC(=O)CCNC(=O)C(O)C(COP(OP(OCC1OC(n2c3ncnc(N)c3nc2)C(O)C1OP(O)(O)=O)(O)=O)(O)=O)(C)C,C7H8N4O2,851.65796,-3.7459,24,611.25,3,632.06879,1,"<I>S</I>-[2-[3-[[4-[[[5-(6-aminopurin-9-yl)-4-hydroxy-3-phosphonooxy-tetrahydrofuran-2-yl]methoxy-hydroxy-phosphoryl]oxy-hydroxy-phosphoryl]oxy-2-hydroxy-3,3-dimethyl-butanoyl]amino]propanoylamino]eth yl] 2-methylbutanethioate"
"InChI=1S/C46H70O2/c1-36(2)18-10-19-37(3)20-11-21-38(4)22-12-23-39(5)24-13-25-40(6)26-14-27-41(7)28-15-29-42(8)30-16-31-43(9)34-35-44-32-17-33-45(47)46(44)48/h17-18,20,22,24,26,28,30,32-34,47-48H,10-16 ,19,21,23,25,27,29,31,35H2,1-9H3",YNPGYMZVNLIZLD-UHFFFAOYSA-N,Oc1c(cccc1O)CC=C(CCC=C(CCC=C(CCC=C(CCC=C(CCC=C(CCC=C(CCC=C(C)C)C)C)C)C)C)C)C,C8H10N4O2,655.06396,8.4080,23,708.88,2,136.9362,1,"3-[(2<I>Z</I>,6<I>E</I>,10<I>E</I>,14<I>Z</I>,18<I>E</I>,22<I>Z</I>,26<I>Z</I>)-3,7,11,15,19,23,27,31-octamethyldotriaconta-2,6,10,14,18,22,26,30-octaenyl]benzene-1,2-diol"
"InChI=1S/C46H70O2/c1-10-11-12-20-37(2)21-13-22-38(3)23-14-24-39(4)25-15-26-40(5)27-16-28-41(6)29-17-30-42(7)31-18-32-43(8)35-36-44-33-19-34-45(48-9)46(44)47/h10-11,19,21,23,25,27,29,31,33-35,47H,12-18 ,20,22,24,26,28,30,32,36H2,1-9H3",MJLXNZUZQMWZTB-UHFFFAOYSA-N,O(C)c1cccc(CC=C(CCC=C(CCC=C(CCC=C(CCC=C(CCC=C(CCC=C(CCC=CC)C)C)C)C)C)C)C)c1O,C8H14ClN5,655.06396,8.6280,24,716.63,2,165.10399,0,"2-[(2<I>Z</I>,6<I>Z</I>,10<I>E</I>,14<I>Z</I>,18<I>Z</I>,22<I>E</I>,26<I>E</I>,30<I>E</I>)-3,7,11,15,19,23,27-heptamethyldotriaconta-2,6,10,14,18,22,26,30-octaenyl]-6-methoxy-phenol"
"InChI=1S/C46H70O/c1-37(2)19-12-20-38(3)21-13-22-39(4)23-14-24-40(5)25-15-26-41(6)27-16-28-42(7)29-17-30-43(8)31-18-32-44(9)35-36-45-33-10-11-34-46(45)47/h10-11,19,21,23,25,27,29,31,33-35,47H,12-18,20, 22,24,26,28,30,32,36H2,1-9H3",VUNQJPPPTJIREN-UHFFFAOYSA-N,Oc1ccccc1CC=C(CCC=C(CCC=C(CCC=C(CCC=C(CCC=C(CCC=C(CCC=C(C)C)C)C)C)C)C)C)C,C8H8O3,639.065,8.7180,23,702.25,2,106.64729,1,"2-[(2<I>Z</I>,6<I>E</I>,10<I>E</I>,14<I>Z</I>,18<I>E</I>,22<I>Z</I>,26<I>Z</I>)-3,7,11,15,19,23,27,31-octamethyldotriaconta-2,6,10,14,18,22,26,30-octaenyl]phenol"
"InChI=1S/C4H6O3/c1-2-3(5)4(6)7/h2H2,1H3,(H,6,7)",TYEYBOSBBBHJIV-UHFFFAOYSA-N,OC(=O)C(=O)CC,C8H9NO2,102.089,-0.0490,2,88.50,0,140.56956,0,2-oxobutanoic acid
"InChI=1S/C3H7O7P/c4-1-2(3(5)6)10-11(7,8)9/h2,4H,1H2,(H,5,6)(H2,7,8,9)",GXIURPTVHJPJLF-UHFFFAOYSA-N,P(OC(C(O)=O)CO)(O)(O)=O,C9H10O3,186.056,-2.3590,4,113.00,0,279.1777,1,3-hydroxy-2-phosphonooxy-propanoic acid
"InChI=1S/C14H26N3O17P3/c1-14(6-18,33-35(23,24)25)8(19)5-31-37(28,29)34-36(26,27)30-4-7-10(20)11(21)12(32-7)17-3-2-9(15)16-13(17)22/h2-3,7-8,10-12,18-21H,4-6H2,1H3,(H,26,27)(H,28,29)(H2,15,16,22)(H2,23 ,24,25)",HTJXTKBIUVFUAR-UHFFFAOYSA-N,P(OCC1OC(N2C=CC(=NC2=O)N)C(O)C1O)(OP(OCC(O)C(OP(O)(O)=O)(CO)C)(O)=O)(O)=O,C9H8O2,601.28796,-6.1750,13,381.00,3,532.24219,1,"[[5-(4-amino-2-oxo-pyrimidin-1-yl)-3,4-dihydroxy-tetrahydrofuran-2-yl]methoxy-hydroxy-phosphoryl] (2,4-dihydroxy-3-methyl-3-phosphonooxy-butyl) hydrogen phosphate"
"InChI=1S/C3H8O10P2/c4-3(5)2(13-15(9,10)11)1-12-14(6,7)8/h2H,1H2,(H,4,5)(H2,6,7,8)(H2,9,10,11)",XOHUEYCVLUUEJJ-UHFFFAOYSA-N,P(OC(C(O)=O)COP(O)(O)=O)(O)(O)=O,C10H11ClO3,266.035,-3.4943,6,148.13,0,361.92822,0,"2,3-diphosphonooxypropanoic acid"
"InChI=1S/C6H5Cl3O/c7-3-1-5(9)6(10)2-4(3)8/h1-3,6,10H",KRQUJBMPSDPYMT-UHFFFAOYSA-N,ClC1C=C(Cl)C(O)C=C1Cl,C10H11N3O3S,199.46399,2.6700,0,139.00,0,127.22112,1,"2,4,5-trichlorocyclohexa-2,5-dien-1-ol"
"InChI=1S/C5H12N2O2/c1-3(6)2-4(7)5(8)9/h3-4H,2,6-7H2,1H3,(H,8,9)",PCEJMSIIDXUDSN-UHFFFAOYSA-N,OC(=O)C(N)CC(N)C,C10H12O3,132.16299,-3.4107,3,114.00,0,197.61777,0,"2,4-diaminopentanoic acid"
"InChI=1S/C6H6Cl2O2/c7-3-1-5(9)4(8)2-6(3)10/h1-2,5-6,9-10H",CPXFTNFOQXXRBF-UHFFFAOYSA-N,ClC1=CC(O)C(Cl)=CC1O,C12H7Cl3O2,181.01799,1.4220,0,129.63,0,110.8888,1,"2,5-dichlorocyclohexa-2,5-diene-1,4-diol"
"InChI=1S/C6H4Cl2O2/c7-3-1-5(9)4(8)2-6(3)10/h1-2,9-10H",AYNPIRVEWMUJDE-UHFFFAOYSA-N,Clc1cc(O)c(Cl)cc1O,C13H10N2O3S,179.002,2.5440,0,129.63,0,78.775276,1,"2,5-dichlorobenzene-1,4-diol"
"InChI=1S/C6H4Cl2O/c7-4-1-2-5(8)6(9)3-4/h1-3,9H",RANCECPPZPIPNO-UHFFFAOYSA-N,Clc1ccc(Cl)cc1O,C13H18O2,163.00299,2.8170,0,126.88,0,41.787121,0,"2,5-dichlorophenol"
"InChI=1S/C6H8O7/c7-1-2(8)3(9)4(10)5(11)6(12)13/h3-4,7,9-10H,1H2,(H,12,13)",RXMWXENJQAINCC-UHFFFAOYSA-N,OC(C(O)C(=O)CO)C(=O)C(O)=O,C13H9Cl3N2O,192.123,-2.9350,5,141.13,0,295.93338,1,"3,4,6-trihydroxy-2,5-dioxo-hexanoic acid"
"InChI=1S/C5H12O9P2/c1-5(3-6)4(7)2-12-15(8,9)14-16(10,11)13-5/h4,6-7H,2-3H2,1H3,(H,8,9)(H,10,11)",SFRQRNJMIIUYDI-UHFFFAOYSA-N,P1(OC(CO)(C)C(O)COP(O1)(O)=O)(O)=O,C14H12O3,278.09,-2.8210,1,163.75,0,272.50146,0,"2,4-dihydroxy-6-(hydroxymethyl)-6-methyl-2,4-dioxo-1,3,5,2&lambda;<sup>5</sup>,4&lambda;<sup>5</sup>-trioxadiphosphocan-7-ol"
"InChI=1S/C7H8O4/c1-5(8)3-2-4-6(9)7(10)11/h2-4,9H,1H3,(H,10,11)",HVZGWILTESYJSP-UHFFFAOYSA-N,OC(=CC=CC(=O)C)C(O)=O,C15H12N2O,156.13699,0.5350,3,139.13,0,191.06326,1,"(2<I>Z</I>,4<I>E</I>)-2-hydroxy-6-oxo-hepta-2,4-dienoic acid"
"InChI=1S/C6H10O3/c1-4(2)3-5(7)6(8)9/h4H,3H2,1-2H3,(H,8,9)",BKAJNAXTPSGJCU-UHFFFAOYSA-N,OC(=O)C(=O)CC(C)C,C4H4KNO4S,130.14299,0.7510,3,119.00,0,133.89615,1,4-methyl-2-oxo-pentanoic acid
"InChI=1S/C6H8O5/c7-4(6(10)11)2-1-3-5(8)9/h1-3H2,(H,8,9)(H,10,11)",FGSBNBBHOZHUBO-UHFFFAOYSA-N,OC(=O)C(=O)CCCC(O)=O,C7H6O3,160.125,-0.5270,5,128.25,0,225.22502,0,2-oxohexanedioic acid
"InChI=1S/C7H6O4/c8-5-2-1-4(7(10)11)3-6(5)9/h1-3,8-9H,(H,10,11)",YQUVCSBJEUQKSH-UHFFFAOYSA-N,Oc1cc(ccc1O)C(O)=O,C7H8N4O2,154.121,1.0020,1,129.25,0,183.84682,1,"3,4-dihydroxybenzoic acid"
"InChI=1S/C10H15N5O10P2/c11-8-5-9(13-2-12-8)15(3-14-5)10-6(16)7(25-27(20,21)22)4(24-10)1-23-26(17,18)19/h2-4,6-7,10,16H,1H2,(H2,11,12,13)(H2,17,18,19)(H2,20,21,22)",WHTCPDAXWFLDIH-UHFFFAOYSA-N,P(OC1C(O)C(OC1COP(O)(O)=O)n1c2ncnc(N)c2nc1)(O)(O)=O,C8H10N4O2,427.203,-4.0929,6,283.13,2,444.66718,0,[5-(6-aminopurin-9-yl)-4-hydroxy-2-(phosphonooxymethyl)tetrahydrofuran-3-yl] dihydrogen phosphate
"InChI=1S/C25H40N7O18P3S/c1-13(33)8-16(35)54-7-6-27-15(34)4-5-28-23(38)20(37)25(2,3)10-47-53(44,45)50-52(42,43)46-9-14-19(49-51(39,40)41)18(36)24(48-14)32-12-31-17-21(26)29-11-30-22(17)32/h11-12,14,18- 20,24,36-37H,4-10H2,1-3H3,(H,27,34)(H,28,38)(H,42,43)(H",OJFDKHTZOUZBOS-UHFFFAOYSA-N,S(C(=O)CC(=O)C)CCNC(=O)CCNC(=O)C(O)C(COP(OP(OCC1OC(n2c3ncnc(N)c3nc2)C(O)C1OP(O)(O)=O)(O)=O)(O)=O)(C)C,C8H14ClN5,851.61401,-5.3899,24,604.75,3,665.3418,1,"<I>S</I>-[2-[3-[[4-[[[5-(6-aminopurin-9-yl)-4-hydroxy-3-phosphonooxy-tetrahydrofuran-2-yl]methoxy-hydroxy-phosphoryl]oxy-hydroxy-phosphoryl]oxy-2-hydroxy-3,3-dimethyl-butanoyl]amino]propanoylamino]eth yl] 3-oxobutanethioate"
"InChI=1S/C3H7NO/c4-2-1-3-5/h3H,1-2,4H2",PCXDJQZLDDHMGX-UHFFFAOYSA-N,O=CCCN,C8H8O3,73.095001,-0.7830,2,70.00,0,132.82477,1,3-aminopropanal
"InChI=1S/C19H28O2/c1-18-9-7-13(20)11-12(18)3-4-14-15-5-6-17(21)19(15,2)10-8-16(14)18/h3,13-16,20H,4-11H2,1-2H3",FMGSKLZLMKYGDP-UHFFFAOYSA-N,OC1CC2=CCC3C4CCC(=O)C4(CCC3C2(CC1)C)C,C8H9NO2,288.431,2.3630,0,248.00,0,85.379433,0,"3-hydroxy-10,13-dimethyl-1,2,3,4,7,8,9,11,12,14,15,16-dodecahydrocyclopenta[a]phenanthren-17-one"
"InChI=1S/C7H12O5/c1-4(2)7(12,6(10)11)3-5(8)9/h4,12H,3H2,1-2H3,(H,8,9)(H,10,11)",BITYXLXUCSKTJS-UHFFFAOYSA-N,OC(C(C)C)(CC(O)=O)C(O)=O,C9H10O3,176.168,0.1940,4,133.50,0,178.93246,1,2-hydroxy-2-isopropyl-butanedioic acid
"InChI=1S/C3H6ClNO2/c4-1-2(5)3(6)7/h2H,1,5H2,(H,6,7)",ASBJGPTTYPEMLP-UHFFFAOYSA-N,ClCC(N)C(O)=O,C9H8O2,123.53899,-2.8447,2,90.13,0,211.18427,0,2-amino-3-chloro-propanoic acid
"InChI=1S/C6H4N2/c7-4-6-2-1-3-8-5-6/h1-3,5H",GZPHSAQLYPIAIN-UHFFFAOYSA-N,n1cc(ccc1)C#N,C10H11ClO3,104.112,0.3330,1,109.75,0,101.29308,1,pyridine-3-carbonitrile