InChI,Key,smiles,Formula,Weight,logP(o/w),b_rotN,vol,lip_violation,ASA_P,Natural,ChemicalName
"InChI=1S/C11H14N4O4/c12-10-7-5(1-2-13-10)15(4-14-7)11-9(18)8(17)6(3-16)19-11/h1-2,4,6,8-9,11,16-18H,3H2,(H2,12,13)",DBZQFUNLCALWDY-UHFFFAOYSA-N,O1C(CO)C(O)C(O)C1n1c2c(nc1)c(ncc2)N,C10H11N3O3S,266.25699,-1.5825,2,218.25,0,240.35452,1,"2-(4-aminoimidazo[4,5-c]pyridin-1-yl)-5-(hydroxymethyl)tetrahydrofuran-3,4-diol"
"InChI=1S/C10H14N2O5/c11-5-1-2-12(7(14)3-5)10-9(16)8(15)6(4-13)17-10/h1-3,6,8-10,13,15-16H,4,11H2",OGADSZTVCUXSOK-UHFFFAOYSA-N,O1C(CO)C(O)C(O)C1N1C=CC(N)=CC1=O,C10H12O3,242.23099,-2.4180,2,196.88,0,224.05292,0,"4-amino-1-[3,4-dihydroxy-5-(hydroxymethyl)tetrahydrofuran-2-yl]pyridin-2-one"
"InChI=1S/C7H10O5/c8-4-1-3(7(11)12)2-5(9)6(4)10/h1,3,5-6,8-10H,2H2,(H,11,12)",YVYKOQWMJZXRRM-UHFFFAOYSA-N,OC1C(O)CC(C=C1O)C(O)=O,C12H7Cl3O2,174.15199,-0.9010,1,135.25,0,227.47372,1,"3,4,5-trihydroxycyclohex-2-ene-1-carboxylic acid"
"InChI=1S/C18H24O5S/c1-18-9-8-14-13-5-3-12(23-24(20,21)22)10-11(13)2-4-15(14)16(18)6-7-17(18)19/h3,5,10,14-17,19H,2,4,6-9H2,1H3,(H,20,21,22)/p-1",QZIGLSSUDXBTLJ-UHFFFAOYSA-M,S(Oc1cc2CCC3C4CCC(O)C4(CCC3c2cc1)C)(=O)(=O)[O-],C13H10N2O3S,351.44299,3.1480,2,280.38,0,166.64662,0,"(17-hydroxy-13-methyl-6,7,8,9,11,12,14,15,16,17-decahydrocyclopenta[a]phenanthren-3-yl) sulfate"
"InChI=1S/C18H24O5S/c1-18-9-8-14-13-5-3-12(23-24(20,21)22)10-11(13)2-4-15(14)16(18)6-7-17(18)19/h3,5,10,14-17,19H,2,4,6-9H2,1H3,(H,20,21,22)",QZIGLSSUDXBTLJ-UHFFFAOYSA-N,S(Oc1cc2CCC3C4CCC(O)C4(CCC3c2cc1)C)(O)(=O)=O,C13H18O2,352.45099,3.1980,2,280.38,0,177.48428,1,"(17-hydroxy-13-methyl-6,7,8,9,11,12,14,15,16,17-decahydrocyclopenta[a]phenanthren-3-yl) hydrogen sulfate"
"InChI=1S/C6H16N4O2/c1-3-7-5-6-9(4-2)10(12)8-11/h7,12H,3-6H2,1-2H3",KCXCCSJYRGUQFM-UHFFFAOYSA-N,ON(N(CCNCC)CC)N=O,C13H9Cl3N2O,176.22,-0.6430,7,159.50,0,79.618675,1,<I>N</I>-[ethyl-[2-(ethylamino)ethyl]amino]-<I>N</I>-hydroxy-nitrous amide
"InChI=1S/C3H7FO2/c4-1-3(6)2-5/h3,5-6H,1-2H2",PQDNJBQKAXAXBQ-UHFFFAOYSA-N,FCC(O)CO,C14H12O3,94.084999,-0.8620,2,70.13,0,149.83679,0,"3-fluoropropane-1,2-diol"
"InChI=1S/C23H42O/c1-4-6-7-8-13-16-19-22(3)20-17-14-11-9-10-12-15-18-21-23(24)5-2/h2,18,21-24H,4,6-17,19-20H2,1,3H3",OJSONOXLRPJULC-UHFFFAOYSA-N,OC(C=CCCCCCCCCC(CCCCCCCC)C)C#C,C15H12N2O,334.58798,8.2560,18,365.88,1,77.790901,1,(<I>E</I>)-14-methyldocos-4-en-1-yn-3-ol
"InChI=1S/C21H38O/c1-4-6-17-20(3)18-15-13-11-9-7-8-10-12-14-16-19-21(22)5-2/h2,16,19-22H,4,6-15,17-18H2,1,3H3",SURKFLRAAGNOJW-UHFFFAOYSA-N,OC(C=CCCCCCCCCCCC(CCCC)C)C#C,C4H4KNO4S,306.534,7.3720,16,336.25,1,70.992645,0,(<I>E</I>)-16-methylicos-4-en-1-yn-3-ol
"InChI=1S/C21H38O/c1-4-21(22)19-17-15-13-11-9-7-5-6-8-10-12-14-16-18-20(2)3/h1,17,19-22H,5-16,18H2,2-3H3",WWRPDXSKUHAOGI-UHFFFAOYSA-N,OC(C=CCCCCCCCCCCCCCC(C)C)C#C,C7H6O3,306.534,7.3720,16,337.38,1,74.927666,1,(<I>E</I>)-19-methylicos-4-en-1-yn-3-ol
"InChI=1S/C23H40O/c1-4-23(24)21-19-17-15-13-11-9-7-5-6-8-10-12-14-16-18-20-22(2)3/h1,10,12,19,21-24H,5-9,11,13-18,20H2,2-3H3",SHZQEBVNRJHIDY-UHFFFAOYSA-N,OC(C=CCCCCCCCCCC=CCCCCC(C)C)C#C,C7H8N4O2,332.57199,7.3080,17,364.50,1,64.641739,1,"(4<I>E</I>,15<I>E</I>)-21-methyldocosa-4,15-dien-1-yn-3-ol"
"InChI=1S/C6H10O5/c1-6(11,2-4(7)8)3-5(9)10/h11H,2-3H2,1H3,(H,7,8)(H,9,10)",NPOAOTPXWNWTSH-UHFFFAOYSA-N,OC(CC(O)=O)(CC(O)=O)C,C8H10N4O2,162.14099,-0.6900,4,122.75,0,211.75136,0,3-hydroxy-3-methyl-pentanedioic acid
"InChI=1S/C7H10N2O/c8-9-5-6-2-1-3-7(10)4-6/h1-4,9-10H,5,8H2",OFKWWALNMPEOSZ-UHFFFAOYSA-N,Oc1cc(ccc1)CNN,C8H14ClN5,138.17,0.5360,2,130.25,0,151.59669,1,3-(hydrazinomethyl)phenol
"InChI=1S/C22H38O/c1-3-5-6-7-8-9-10-11-12-13-14-15-16-17-18-19-20-21-22(23)4-2/h2,9-10,20-23H,3,5-8,11-19H2,1H3",HEXQBSKJVUFXNG-UHFFFAOYSA-N,OC(C=CCCCCCCCCCC=CCCCCCC)C#C,C8H8O3,318.54498,6.9500,17,353.75,1,92.527046,0,"(4<I>E</I>,15<I>E</I>)-docosa-4,15-dien-1-yn-3-ol"
"InChI=1S/C20H36O/c1-3-5-6-7-8-9-10-11-12-13-14-15-16-17-18-19-20(21)4-2/h2,18-21H,3,5-17H2,1H3",MQUXQBHHZDPZOB-UHFFFAOYSA-N,OC(C=CCCCCCCCCCCCCCCC)C#C,C8H9NO2,292.50699,7.0140,16,323.88,1,76.6502,1,(<I>E</I>)-icos-4-en-1-yn-3-ol
"InChI=1S/C21H38O/c1-3-5-6-7-8-9-10-11-12-13-14-15-16-17-18-19-20-21(22)4-2/h2,19-22H,3,5-18H2,1H3",HVQYKJVJIUKLMD-UHFFFAOYSA-N,OC(C=CCCCCCCCCCCCCCCCC)C#C,C9H10O3,306.534,7.4560,17,338.88,1,53.886646,1,(<I>E</I>)-henicos-4-en-1-yn-3-ol
"InChI=1S/C15H18N2O4/c1-16-10(3-2-6-18)9(8-19)13-14(16)12(20)7-11(15(13)21)17-4-5-17/h7,18-19H,2-6,8H2,1H3",JCCDRCRHGKFTQS-UHFFFAOYSA-N,O=C1c2c(n(C)c(CCCO)c2CO)C(=O)C=C1N1CC1,C9H8O2,290.319,0.0210,5,263.63,0,204.48297,0,"5-(aziridin-1-yl)-3-(hydroxymethyl)-2-(3-hydroxypropyl)-1-methyl-indole-4,7-dione"
"InChI=1S/C9H13NO2/c1-12-9-6-7(4-5-10)2-3-8(9)11/h2-3,6,11H,4-5,10H2,1H3",DIVQKHQLANKJQO-UHFFFAOYSA-N,O(C)c1cc(ccc1O)CCN,C10H11ClO3,167.20799,0.9330,3,158.38,0,141.68204,1,4-(2-aminoethyl)-2-methoxy-phenol
"InChI=1S/C10H13NO4/c1-15-9-5-6(2-3-8(9)12)4-7(11)10(13)14/h2-3,5,7,12H,4,11H2,1H3,(H,13,14)",PFDUUKDQEHURQC-UHFFFAOYSA-N,O(C)c1cc(ccc1O)CC(N)C(O)=O,C10H11N3O3S,211.217,-1.8397,4,185.25,0,198.22189,0,2-amino-3-(4-hydroxy-3-methoxy-phenyl)propanoic acid
"InChI=1S/C4H11NO/c1-6-4-2-3-5/h2-5H2,1H3",FAXDZWQIWUSWJH-UHFFFAOYSA-N,O(CCCN)C,C12H7Cl3O2,89.138,-0.2660,3,90.25,0,114.97551,1,3-methoxypropan-1-amine
"InChI=1S/C6H7N5/c1-11-3-10-5(7)4-6(11)9-2-8-4/h2-3H,7H2,1H3",FSASIHFSFGAIJM-UHFFFAOYSA-N,n1cn(c-2ncnc-2c1N)C,C13H10N2O3S,149.157,-0.8899,0,138.75,0,175.74469,0,3-methylpurin-6-amine
"InChI=1S/C21H16/c1-13-6-7-15-12-20-17-5-3-2-4-14(17)8-9-18(20)19-11-10-16(13)21(15)19/h2-9,12H,10-11H2,1H3",PPQNQXQZIWHJRB-UHFFFAOYSA-N,c12CCc3c1c(ccc2C)cc1c3ccc2c1cccc2,C13H18O2,268.35898,6.5777,0,278.13,1,0,1,"3-methyl-1,2-dihydrobenzo[j]aceanthrylene"
"InChI=1S/C11H16N2O5/c1-6-4-13(11(17)12(2)10(6)16)9-3-7(15)8(5-14)18-9/h4,7-9,14-15H,3,5H2,1-2H3",JCVDICFLPGDHAT-UHFFFAOYSA-N,O1C(CO)C(O)CC1N1C=C(C)C(=O)N(C)C1=O,C13H9Cl3N2O,256.258,-1.5920,2,217.25,0,195.46271,0,"1-[4-hydroxy-5-(hydroxymethyl)tetrahydrofuran-2-yl]-3,5-dimethyl-pyrimidine-2,4-dione"
"InChI=1S/C8H10N4O2/c1-2-3-12-6-5(9-4-10-6)7(13)11-8(12)14/h4H,2-3H2,1H3,(H,9,10)(H,11,13,14)",SIQPXVQCUCHWDI-UHFFFAOYSA-N,O=C1NC(=O)N(c2[nH]cnc12)CCC,C14H12O3,194.194,-0.4010,2,169.88,0,165.84921,1,"3-propyl-9<I>H</I>-purine-2,6-dione"
"InChI=1S/C6H6BNO4/c9-7(10)5-2-1-3-6(4-5)8(11)12/h1-4,9-10H",ZNRGSYUVFVNSAW-UHFFFAOYSA-N,OB(O)c1cc([N+](=O)[O-])ccc1,C15H12N2O,166.92799,0.8930,2,145.13,0,192.80707,1,(3-nitrophenyl)boronic acid
"InChI=1S/C3H5NO4/c5-3(6)1-2-4(7)8/h1-2H2,(H,5,6)",WBLZUCOIBUDNBV-UHFFFAOYSA-N,OC(=O)CC[N+](=O)[O-],C4H4KNO4S,119.076,-0.2200,3,90.25,0,194.74812,0,3-nitropropanoic acid
"InChI=1S/C7H6N2O2/c8-7(10)5-2-1-3-6(4-5)9-11/h1-4H,(H2,8,10)",OZUBORKYZRYLSQ-UHFFFAOYSA-N,O=C(N)c1cc(N=O)ccc1,C7H6O3,150.13699,0.9050,2,136.13,0,116.17715,1,3-nitrosobenzamide
"InChI=1S/C21H22O4/c1-12(2)4-5-13-8-16-19(10-18(13)23-3)24-11-17-15-7-6-14(22)9-20(15)25-21(16)17/h4,6-10,17,21-22H,5,11H2,1-3H3",FZFGGNNUYSILSL-UHFFFAOYSA-N,O1C2C(c3c1cc(O)cc3)COc1cc(OC)c(cc12)CC=C(C)C,C7H8N4O2,338.40298,3.9670,3,323.88,0,126.83083,0,"3-methoxy-2-(3-methylbut-2-enyl)-6<I>a</I>,11<I>a</I>-dihydro-6<I>H</I>-benzofuro[3,2-c]chromen-9-ol"
"InChI=1S/C9H9N/c10-8-4-7-9-5-2-1-3-6-9/h1-3,5-6H,8,10H2",DEHHYUARFKIUDI-UHFFFAOYSA-N,NCC#Cc1ccccc1,C8H10N4O2,131.17799,1.9080,2,146.13,0,96.685493,1,3-phenylprop-2-yn-1-amine
"InChI=1S/C3H7O5P/c4-3(5)1-2-9(6,7)8/h1-2H2,(H,4,5)(H2,6,7,8)",NLBSQHGCGGFVJW-UHFFFAOYSA-N,P(O)(O)(=O)CCC(O)=O,C8H14ClN5,154.058,-1.8400,3,99.88,0,234.41745,1,3-phosphonopropanoic acid
"InChI=1S/C15H17Cl2NO2/c1-18-12-2-3-13(18)8-14(7-12)20-15(19)9-4-10(16)6-11(17)5-9/h4-6,12-14H,2-3,7-8H2,1H3",MNJNPLVXBISNSX-UHFFFAOYSA-N,Clc1cc(cc(Cl)c1)C(OC1CC2N(C(C1)CC2)C)=O,C8H8O3,314.21201,4.4460,3,252.50,0,56.29694,0,"(8-methyl-8-azabicyclo[3.2.1]octan-3-yl) 3,5-dichlorobenzoate"
"InChI=1S/C18H18F3N3O3/c1-10-7-13(16-22-17(27-24-16)18(19,20)21)8-11(2)15(10)25-6-4-5-14-9-12(3)23-26-14/h7-9H,4-6H2,1-3H3",KQOXLKOJHVFTRN-UHFFFAOYSA-N,FC(F)(F)c1onc(n1)-c1cc(C)c(OCCCc2onc(c2)C)c(c1)C,C8H9NO2,381.354,3.6928,7,327.88,0,194.25172,1,"3-[3,5-dimethyl-4-[3-(3-methylisoxazol-5-yl)propoxy]phenyl]-5-(trifluoromethyl)-1,2,4-oxadiazole"
"InChI=1S/C12H17NO6/c13-6-1-3-7(4-2-6)18-12-11(17)10(16)9(15)8(5-14)19-12/h1-4,8-12,14-17H,5,13H2",MIAKOEWBCMPCQR-UHFFFAOYSA-N,O1C(CO)C(O)C(O)C(O)C1Oc1ccc(N)cc1,C9H10O3,271.26898,-1.3380,3,221.25,1,197.48276,0,"2-(4-aminophenoxy)-6-(hydroxymethyl)tetrahydropyran-3,4,5-triol"
InChI=1S/C15H9BrO2/c16-11-7-5-10(6-8-11)15-9-13(17)12-3-1-2-4-14(12)18-15/h1-9H,URZUAHXELZUWFE-UHFFFAOYSA-N,Brc1ccc(cc1)C=1Oc2c(cccc2)C(=O)C=1,C9H8O2,301.13901,4.1840,1,246.25,0,43.906361,1,2-(4-bromophenyl)chromen-4-one
"InChI=1S/C21H24ClNO/c1-23-18-11-12-19(23)14-20(13-18)24-21(15-5-3-2-4-6-15)16-7-9-17(22)10-8-16/h2-10,18-21H,11-14H2,1H3",OCAXFDULERPAJM-UHFFFAOYSA-N,Clc1ccc(cc1)C(OC1CC2N(C(C1)CC2)C)c1ccccc1,C10H11ClO3,341.88199,5.8010,4,307.13,1,25.921101,1,3-[(4-chlorophenyl)-phenyl-methoxy]-8-methyl-8-azabicyclo[3.2.1]octane
"InChI=1S/C16H12Cl2N2O/c1-20-14-7-6-12(18)8-13(14)16(19-9-15(20)21)10-2-4-11(17)5-3-10/h2-8H,9H2,1H3",PUMYFTJOWAJIKF-UHFFFAOYSA-N,Clc1ccc(cc1)C1=NCC(=O)N(c2c1cc(Cl)cc2)C,C10H11N3O3S,319.19098,3.7010,1,274.50,0,84.042427,0,"7-chloro-5-(4-chlorophenyl)-1-methyl-3<I>H</I>-1,4-benzodiazepin-2-one"
"InChI=1S/C21H20O7/c1-24-16-5-11(6-17(25-2)20(16)22)18-13-7-15-14(27-9-28-15)4-10(13)3-12-8-26-21(23)19(12)18/h4-7,12,18-19,22H,3,8-9H2,1-2H3",RFDMNXDDRXVJTM-UHFFFAOYSA-N,O1CC2C(C(c3c(C2)cc2OCOc2c3)c2cc(OC)c(O)c(OC)c2)C1=O,C10H12O3,384.384,2.7820,3,334.38,0,226.33258,1,"5-(4-hydroxy-3,5-dimethoxy-phenyl)-5<I>a</I>,8,8<I>a</I>,9-tetrahydro-5<I>H</I>-isobenzofuro[5,6-f][1,3]benzodioxol-6-one"
"InChI=1S/C27H29NO11/c1-10-22(31)13(28)6-17(38-10)39-15-8-27(36,16(30)9-29)7-12-19(15)26(35)21-20(24(12)33)23(32)11-4-3-5-14(37-2)18(11)25(21)34/h3-5,10,13,15,17,22,29,31,33,35-36H,6-9,28H2,1-2H3/p+1",AOJJSUZBOXZQNB-UHFFFAOYSA-O,O1C(C)C(O)C([NH3+])CC1OC1CC(O)(Cc2c1c(O)c1c(C(=O)c3c(C1=O)c(OC)ccc3)c2O)C(=O)CO,C12H7Cl3O2,544.53296,0.5070,5,444.00,3,328.45117,0,"[3-hydroxy-2-methyl-6-[[3,5,12-trihydroxy-3-(2-hydroxyacetyl)-10-methoxy-6,11-dioxo-2,4-dihydro-1<I>H</I>-tetracen-1-yl]oxy]tetrahydropyran-4-yl]ammonium"
"InChI=1S/C27H29NO11/c1-10-22(31)13(28)6-17(38-10)39-15-8-27(36,16(30)9-29)7-12-19(15)26(35)21-20(24(12)33)23(32)11-4-3-5-14(37-2)18(11)25(21)34/h3-5,10,13,15,17,22,29,31,33,35-36H,6-9,28H2,1-2H3",AOJJSUZBOXZQNB-UHFFFAOYSA-N,O1C(C)C(O)C(N)CC1OC1CC(O)(Cc2c1c(O)c1c(C(=O)c3c(C1=O)c(OC)ccc3)c2O)C(=O)CO,C13H10N2O3S,543.52496,0.5070,5,444.00,3,321.95163,1,"7-(4-amino-5-hydroxy-6-methyl-tetrahydropyran-2-yl)oxy-6,9,11-trihydroxy-9-(2-hydroxyacetyl)-4-methoxy-8,10-dihydro-7<I>H</I>-tetracene-5,12-dione"
"InChI=1S/C9H16O2/c1-2-3-4-6-9(11)7-5-8-10/h5,7-9,11H,2-4,6H2,1H3",JVJFIQYAHPMBBX-UHFFFAOYSA-N,OC(\C=C\C=O)CCCCC,C13H9Cl3N2O,156.22499,2.3970,6,159.75,0,122.27872,0,(<I>E</I>)-4-hydroxynon-2-enal
"InChI=1S/C6HBr4N3/c7-1-2(8)4(10)6-5(3(1)9)11-13-12-6/h(H,11,12,13)",OMZYUVOATZSGJY-UHFFFAOYSA-N,Brc1c(Br)c(Br)c2[nH]nnc2c1Br,C14H12O3,434.711,4.5090,0,201.63,0,87.892937,1,"4,5,6,7-tetrabromo-1<I>H</I>-benzotriazole"
"InChI=1S/C6H8N2O2/c9-6-4-3-7-2-1-5(4)10-8-6/h7H,1-3H2,(H,8,9)",SXXLKZCNJHJYFL-UHFFFAOYSA-N,O1NC(=O)C2=C1CCNC2,C15H12N2O,140.142,-0.7040,0,118.75,0,141.67607,0,"4,5,6,7-tetrahydroisoxazolo[4,5-c]pyridin-3-one"
"InChI=1S/C7H11N3O4/c11-2-4-6(13)7(14)5(12)3-1-8-9-10(3)4/h1,4-7,11-14H,2H2/p+1",QTNWFPNNMUCBLD-UHFFFAOYSA-O,OC1C(O)C(O)c2[n+]([nH]nc2)C1CO,C4H4KNO4S,202.19,-2.9370,1,153.00,0,223.49213,1,"7-(hydroxymethyl)-4,5,6,7-tetrahydro-1<I>H</I>-triazolo[1,5-a]pyridin-8-ium-4,5,6-triol"
"InChI=1S/C20H15N3O2/c24-19-15-11-17(21-13-7-3-1-4-8-13)18(12-16(15)20(25)23-19)22-14-9-5-2-6-10-14/h1-12,21-22H,(H,23,24,25)",AAALVYBICLMAMA-UHFFFAOYSA-N,O=C1NC(=O)c2c1cc(Nc1ccccc1)c(Nc1ccccc1)c2,C7H6O3,329.35898,3.7100,4,316.50,0,157.19928,1,"5,6-dianilinoisoindoline-1,3-dione"
"InChI=1S/C10H14O6/c11-7(3-5-9(13)14)1-2-8(12)4-6-10(15)16/h1-6H2,(H,13,14)(H,15,16)",DUAWJQCMZICMIK-UHFFFAOYSA-N,OC(=O)CCC(=O)CCC(=O)CCC(O)=O,C7H8N4O2,230.21599,-1.0620,9,198.38,0,216.5515,0,"4,7-dioxodecanedioic acid"
"InChI=1S/C11H19N3O6/c1-4(15)14-8-5(13)2-7(11(18)19)20-10(8)9(17)6(16)3-12/h2,5-6,8-10,16-17H,3,12-13H2,1H3,(H,14,15)(H,18,19)",XDWUALXMEIYOQM-UHFFFAOYSA-N,O1C(C(O)C(O)CN)C(NC(=O)C)C(N)C=C1C(O)=O,C8H10N4O2,289.28799,-3.2400,6,227.38,1,336.26462,1,"3-acetamido-4-amino-2-(3-amino-1,2-dihydroxy-propyl)-3,4-dihydro-2<I>H</I>-pyran-6-carboxylic acid"
"InChI=1S/C14H12F2N2O3S/c15-12-3-1-2-10(13(12)16)8-18-14(19)9-4-6-11(7-5-9)22(17,20)21/h1-7H,8H2,(H,18,19)(H2,17,20,21)",QASSMVGOSBNFQY-UHFFFAOYSA-N,S(=O)(=O)(N)c1ccc(cc1)C(=O)NCc1cccc(F)c1F,C8H14ClN5,326.323,1.7230,5,260.50,0,193.73528,0,"<I>N</I>-[(2,3-difluorophenyl)methyl]-4-sulfamoyl-benzamide"
"InChI=1S/C8H10FNO2S/c9-13(11,12)8-3-1-7(2-4-8)5-6-10/h1-4H,5-6,10H2",MGSKVZWGBWPBTF-UHFFFAOYSA-N,S(F)(=O)(=O)c1ccc(cc1)CCN,C8H8O3,203.237,0.9610,3,159.75,0,155.25189,1,4-(2-aminoethyl)benzenesulfonyl fluoride
"InChI=1S/C10H16NO3PS/c11-9-5-1-2-6-10(9)16-8-4-3-7-15(12,13)14/h1-2,5-6H,3-4,7-8,11H2,(H2,12,13,14)",POZPBCXLYRZUTO-UHFFFAOYSA-N,S(CCCCP(O)(O)=O)c1ccccc1N,C8H9NO2,261.28201,0.9850,6,207.38,0,217.27095,1,4-(2-aminophenyl)sulfanylbutylphosphonic acid
"InChI=1S/C10H12FO4PS/c11-8-3-4-9(12)10(7-8)17-6-2-1-5-16(13,14)15/h1,3-5,7,12H,2,6H2,(H2,13,14,15)",UXOYJQMPYTYCMG-UHFFFAOYSA-N,S(CCC=CP(O)(O)=O)c1cc(F)ccc1O,C9H10O3,278.23999,0.9670,5,211.00,0,202.83818,0,[(<I>E</I>)-4-(5-fluoro-2-hydroxy-phenyl)sulfanylbut-1-enyl]phosphonic acid
"InChI=1S/C10H15O5PS/c11-9-5-1-2-6-10(9)17(15)8-4-3-7-16(12,13)14/h1-2,5-6,11H,3-4,7-8H2,(H2,12,13,14)",FFIGWLBWBXCVHW-UHFFFAOYSA-N,S(=O)(CCCCP(O)(O)=O)c1ccccc1O,C9H8O2,278.26498,-0.6380,6,209.25,0,181.04326,1,4-(2-hydroxyphenyl)sulfinylbutylphosphonic acid
"InChI=1S/C10H13O4PS/c11-9-5-1-2-6-10(9)16-8-4-3-7-15(12,13)14/h1-3,5-7,11H,4,8H2,(H2,12,13,14)",GHNIEXOPSISMGX-UHFFFAOYSA-N,S(CCC=CP(O)(O)=O)c1ccccc1O,C10H11ClO3,260.25,0.7770,5,205.25,0,229.24144,0,[(<I>E</I>)-4-(2-hydroxyphenyl)sulfanylbut-1-enyl]phosphonic acid
"InChI=1S/C9H14N4/c10-7-3-1-6(2-4-7)8-5-12-9(11)13-8/h5,7H,1-4,10H2,(H2,11,13)/b8-6-",IOFGATAJWGLVLA-VURMDHGXSA-N,N=1C(C=NC=1N)=C1CCC(N)CC1,C10H11N3O3S,178.239,0.0870,0,164.88,0,204.80826,1,4-(4-aminocyclohexylidene)imidazol-2-amine
"InChI=1S/C14H9BrN4O3S/c15-8-1-6-12-11(7-8)13(14(20)17-12)19-18-9-2-4-10(5-3-9)23(16,21)22/h1-7H,(H2,16,21,22)/b19-18+",BWTHJLODYBOEIY-VHEBQXMUSA-N,BrC=1C=CC2=NC(=O)C(\N=N\c3ccc(S(=O)(=O)N)cc3)=C2C=1,C10H12O3,393.22101,2.6020,3,287.63,0,211.30649,1,4-[(E)-(5-bromo-2-oxo-indol-3-yl)azo]benzenesulfonamide
"InChI=1S/C15H20N2O4/c1-4-10(5-2)14(19)17-13-8-11(15(20)21)6-7-12(13)16-9(3)18/h6-8,10H,4-5H2,1-3H3,(H,16,18)(H,17,19)(H,20,21)",USKXJFHTBQWXCS-UHFFFAOYSA-N,OC(=O)c1cc(NC(=O)C(CC)CC)c(NC(=O)C)cc1,C12H7Cl3O2,292.33499,1.9290,8,266.13,0,162.40564,0,4-acetamido-3-(2-ethylbutanoylamino)benzoic acid
"InChI=1S/C31H37NO3S/c33-30(16-10-2-1-5-11-25-12-6-3-7-13-25)32-28(19-22-31(34)35)24-36-29-20-17-27(18-21-29)23-26-14-8-4-9-15-26/h3-4,6-9,12-15,17-18,20-21,28H,1-2,5,10-11,16,19,22-24H2,(H,32,33)(H,34 ,35)",BLFSPSZATDQQMK-UHFFFAOYSA-N,S(CC(NC(=O)CCCCCCc1ccccc1)CCC(O)=O)c1ccc(cc1)Cc1ccccc1,C13H10N2O3S,503.707,7.5610,17,490.75,2,166.63177,1,5-(4-benzylphenyl)sulfanyl-4-(7-phenylheptanoylamino)pentanoic acid
"InChI=1S/C9H15BO2Si/c1-13(2,3)9-6-4-8(5-7-9)10(11)12/h4-7,11-12H,1-3H3",NRPZMSUGPMYBCQ-UHFFFAOYSA-N,[Si](C)(C)(C)c1ccc(cc1)B(O)O,C13H18O2,194.11299,0.5150,2,177.75,0,113.43332,0,(4-trimethylsilylphenyl)boronic acid
"InChI=1S/C29H26N2O3/c1-29(2)14-13-23(21-15-19-5-3-4-6-26(19)30-17-21)24-16-20(9-12-25(24)29)27(32)31-22-10-7-18(8-11-22)28(33)34/h3-12,15-17,23H,13-14H2,1-2H3,(H,31,32)(H,33,34)",WBEIHCAWTAWTBK-UHFFFAOYSA-N,OC(=O)c1ccc(NC(=O)c2cc3c(cc2)C(CCC3c2cc3c(nc2)cccc3)(C)C)cc1,C13H9Cl3N2O,450.53799,6.2320,5,427.00,1,180.82796,1,"4-[[1,1-dimethyl-4-(3-quinolyl)tetralin-6-carbonyl]amino]benzoic acid"
"InChI=1S/C21H15N5O3S2/c27-21-15(19-16(25-21)8-9-17-20(19)30-12-24-17)11-23-13-4-6-14(7-5-13)31(28,29)26-18-3-1-2-10-22-18/h1-10,12,23H,11H2,(H,22,26)",MBXKBJLIESPLIK-UHFFFAOYSA-N,s1c2C=3C(=NC(=O)C=3CNc3ccc(S(=O)(=O)Nc4ncccc4)cc3)C=Cc2nc1,C14H12O3,449.51498,1.9860,6,373.75,0,237.47488,1,"4-[(7-oxopyrrolo[2,3-g][1,3]benzothiazol-8-yl)methylamino]-<I>N</I>-(2-pyridyl)benzenesulfonamide"
"InChI=1S/C17H15N3O3/c1-21-12-3-4-14-13(7-12)17(20-9-19-14)18-8-11-2-5-15-16(6-11)23-10-22-15/h2-7,9H,8,10H2,1H3,(H,18,19,20)",GZQGUYVURISNFJ-UHFFFAOYSA-N,O1c2cc(ccc2OC1)CNc1ncnc2c1cc(OC)cc2,C15H12N2O,309.32498,2.5000,4,290.88,0,176.36661,0,"<I>N</I>-(1,3-benzodioxol-5-ylmethyl)-6-methoxy-quinazolin-4-amine"
"InChI=1S/C17H17N3O2S/c1-21-15-8-13-14(9-16(15)22-2)18-10-19-17(13)20-11-5-4-6-12(7-11)23-3/h4-10H,1-3H3,(H,18,19,20)",FUSDVOSGGMBSMK-UHFFFAOYSA-N,S(C)c1cc(Nc2ncnc3c2cc(OC)c(OC)c3)ccc1,C4H4KNO4S,327.40799,3.1137,5,306.25,0,202.78998,1,"6,7-dimethoxy-<I>N</I>-(3-methylsulfanylphenyl)quinazolin-4-amine"
"InChI=1S/C25H32N2O2S/c1-29-23-7-8-24-22(18-23)19-27(15-16-30-24)25(28)11-14-26-12-9-21(10-13-26)17-20-5-3-2-4-6-20/h2-8,18,21H,9-17,19H2,1H3",KCWGETCFOVJEPI-UHFFFAOYSA-N,S1CCN(Cc2cc(OC)ccc12)C(=O)CCN1CCC(CC1)Cc1ccccc1,C7H6O3,424.60898,4.2930,7,403.63,0,134.68449,0,"3-(4-benzyl-1-piperidyl)-1-(7-methoxy-3,5-dihydro-2<I>H</I>-1,4-benzothiazepin-4-yl)propan-1-one"
"InChI=1S/C17H20N2O9S/c20-14(21)8-7-12(16(23)24)18-15(22)10-3-5-11(6-4-10)29(27,28)19-9-1-2-13(19)17(25)26/h3-6,12-13H,1-2,7-9H2,(H,18,22)(H,20,21)(H,23,24)(H,25,26)",NDDOUBGQRWFVQM-UHFFFAOYSA-N,S(=O)(=O)(N1CCCC1C(O)=O)c1ccc(cc1)C(=O)NC(CCC(O)=O)C(O)=O,C7H8N4O2,428.418,-0.2300,10,331.25,1,336.01129,1,2-[[4-(2-carboxypyrrolidin-1-yl)sulfonylbenzoyl]amino]pentanedioic acid
"InChI=1S/C31H43N5O6/c1-21(2)14-25(33-30(39)41-19-23-8-6-5-7-9-23)16-36-17-27(28(37)18-36)34-29(38)26(15-22(3)4)35-31(40)42-20-24-10-12-32-13-11-24/h5-13,21-22,25-27H,14-20H2,1-4H3,(H,33,39)(H,34,38)(H ,35,40)",YCGCXDDZHQMZQY-UHFFFAOYSA-N,O=C1CN(CC1NC(=O)C(NC(OCc1ccncc1)=O)CC(C)C)CC(NC(OCc1ccccc1)=O)CC(C)C,C8H10N4O2,581.71399,3.7920,19,542.88,2,208.99229,1,4-pyridylmethyl <I>N</I>-[1-[[1-[2-(benzyloxycarbonylamino)-4-methyl-pentyl]-4-oxo-pyrrolidin-3-yl]carbamoyl]-3-methyl-butyl]carbamate
"InChI=1S/C16H16N4O3/c1-10(21)19-12-6-8-14(9-7-12)23-15(22)11-2-4-13(5-3-11)20-16(17)18/h2-9H,1H3,(H,19,21)(H4,17,18,20)",VACGBZYEDFQOIU-UHFFFAOYSA-N,O(C(=O)c1ccc(N=C(N)N)cc1)c1ccc(NC(=O)C)cc1,C8H14ClN5,312.32898,1.8060,6,289.63,0,241.55525,0,(4-acetamidophenyl) 4-guanidinobenzoate
"InChI=1S/C8H9FN2O2S/c9-14(12,13)5-6-1-3-7(4-2-6)8(10)11/h1-4H,5H2,(H3,10,11)",PMHUSCHKTSTQEP-UHFFFAOYSA-N,S(F)(=O)(=O)Cc1ccc(cc1)C(N)=N,C8H8O3,216.23599,1.1380,3,165.25,0,190.27097,1,(4-carbamimidoylphenyl)methanesulfonyl fluoride
"InChI=1S/C12H8N2O2/c13-9-5-4-8-10-6(9)2-1-3-7(10)11(15)14-12(8)16/h1-5H,13H2,(H,14,15,16)",SSMIFVHARFVINF-UHFFFAOYSA-N,O=C1NC(=O)c2c3c1ccc(N)c3ccc2,C8H9NO2,212.20799,1.4200,0,191.13,0,177.34459,0,"6-aminobenzo[de]isoquinoline-1,3-dione"
"InChI=1S/C11H18N2O7/c1-4(15)13-8-5(12)2-7(11(18)19)20-10(8)9(17)6(16)3-14/h2,5-6,8-10,14,16-17H,3,12H2,1H3,(H,13,15)(H,18,19)",NKENBBIXEGPQLS-UHFFFAOYSA-N,O1C(C(O)C(O)CO)C(NC(=O)C)C(N)C=C1C(O)=O,C9H10O3,290.272,-3.0180,6,225.50,1,325.67792,1,"3-acetamido-4-amino-2-(1,2,3-trihydroxypropyl)-3,4-dihydro-2<I>H</I>-pyran-6-carboxylic acid"
"InChI=1S/C6H8F3N3O7P2/c7-6(8,9)5-11-1-3(4(10)12-5)2-18-21(16,17)19-20(13,14)15/h1H,2H2,(H,16,17)(H2,10,11,12)(H2,13,14,15)",UKNJCTHTCAKKNG-UHFFFAOYSA-N,P(OCc1cnc(nc1N)C(F)(F)F)(OP(O)(O)=O)(O)=O,C9H8O2,353.086,-2.0622,6,209.63,0,440.05014,1,[4-amino-2-(trifluoromethyl)pyrimidin-5-yl]methyl phosphono hydrogen phosphate
"InChI=1S/C20H18F4N2O2S/c1-11-14(18(25)17-15(21)6-3-7-16(17)26-11)10-29-9-12-4-2-5-13(8-12)19(27,28)20(22,23)24/h2-8,27-28H,9-10H2,1H3,(H2,25,26)",GPBGHVRNVGXPNM-UHFFFAOYSA-N,S(Cc1c(nc2c(c1N)c(F)ccc2)C)Cc1cc(ccc1)C(O)(O)C(F)(F)F,C10H11ClO3,426.43399,4.7388,6,338.63,1,239.94119,0,"1-[3-[(4-amino-5-fluoro-2-methyl-3-quinolyl)methylsulfanylmethyl]phenyl]-2,2,2-trifluoro-ethane-1,1-diol"