InChI,Key,smiles,Formula,Weight,logP(o/w),b_rotN,vol,lip_violation,ASA_P,Natural,ChemicalName
"InChI=1S/C11H18ClN7O/c1-11(2,3)19(4)8-6(12)16-5(7(13)17-8)9(20)18-10(14)15/h1-4H3,(H2,13,17)(H4,14,15,18,20)",YVFSEWDHZYWBNR-UHFFFAOYSA-N,Clc1nc(C(=O)N=C(N)N)c(nc1N(C(C)(C)C)C)N,C8H9NO2,299.76599,1.1075,4,244.63,1,258.17465,1,3-amino-5-[tert-butyl(methyl)amino]-6-chloro-<I>N</I>-(diaminomethylene)pyrazine-2-carboxamide
"InChI=1S/C19H30N2O/c1-2-3-4-5-6-7-8-13-22-17-9-10-19-18(14-17)16(11-12-20)15-21-19/h9-10,14-15,21H,2-8,11-13,20H2,1H3",YHSMSRREJYOGQJ-UHFFFAOYSA-N,O(CCCCCCCCC)c1cc2c([nH]cc2CCN)cc1,C9H10O3,302.46201,5.0510,11,309.75,0,138.40344,0,2-(5-nonoxy-1<I>H</I>-indol-3-yl)ethanamine
"InChI=1S/C5H8N4O3S2/c1-3(10)7-4-9(2)8-5(13-4)14(6,11)12/h1-2H3,(H2,6,11,12)/p+1",FLOSMHQXBMRNHR-UHFFFAOYSA-O,s1c([n+](nc1S(=O)(=O)N)C)NC(=O)C,C9H8O2,237.284,-1.1850,3,165.75,0,255.84637,1,"<I>N</I>-(3-methyl-5-sulfamoyl-1,3,4-thiadiazol-3-ium-2-yl)acetamide"
"InChI=1S/C20H27N3O5/c1-3-10-23(11-9-14-7-5-4-6-8-14)19(25)18-17(22-13(2)24)15(21)12-16(28-18)20(26)27/h4-8,12,15,17-18H,3,9-11,21H2,1-2H3,(H,22,24)(H,26,27)",ZNRGSYNQOLEMKF-UHFFFAOYSA-N,O1C(C(=O)N(CCc2ccccc2)CCC)C(NC(=O)C)C(N)C=C1C(O)=O,C10H11ClO3,389.452,0.9770,10,351.13,0,237.41548,0,"3-acetamido-4-amino-2-[2-phenylethyl(propyl)carbamoyl]-3,4-dihydro-2<I>H</I>-pyran-6-carboxylic acid"
"InChI=1S/C8H8N4/c9-8(10)5-1-2-6-7(3-5)12-4-11-6/h1-4H,(H3,9,10)(H,11,12)/p+1",UHGFPMUGEQINGV-UHFFFAOYSA-O,[NH2+]=C(N)c1cc2[nH]cnc2cc1,C10H11N3O3S,161.188,0.3340,1,150.75,0,178.29781,1,[amino(3<I>H</I>-benzimidazol-5-yl)methylene]ammonium
"InChI=1S/C8H8N4/c9-8(10)5-1-2-6-7(3-5)12-4-11-6/h1-4H,(H3,9,10)(H,11,12)",UHGFPMUGEQINGV-UHFFFAOYSA-N,[nH]1c2c(nc1)cc(cc2)C(N)=N,C10H12O3,160.17999,0.5470,1,150.75,0,171.92258,1,1<I>H</I>-benzimidazole-5-carboxamidine
"InChI=1S/C10H10N4O/c11-9-8(10(12)15)6-13-14(9)7-4-2-1-3-5-7/h1-6H,11H2,(H2,12,15)",UBKSUPKIDNXMMC-UHFFFAOYSA-N,O=C(N)c1cnn(c1N)-c1ccccc1,C12H7Cl3O2,202.217,0.2100,2,189.88,0,156.71982,0,5-amino-1-phenyl-pyrazole-4-carboxamide
"InChI=1S/C9H13N3O5/c10-4-2-12(9(16)11-8(4)15)7-1-5(14)6(3-13)17-7/h2,5-7,13-14H,1,3,10H2,(H,11,15,16)",OZMVAFPILSPXRM-UHFFFAOYSA-N,O1C(CO)C(O)CC1N1C=C(N)C(=O)NC1=O,C13H10N2O3S,243.21899,-2.4260,2,192.75,0,281.40445,1,"5-amino-1-[4-hydroxy-5-(hydroxymethyl)tetrahydrofuran-2-yl]pyrimidine-2,4-dione"
"InChI=1S/C16H14BrN3O3S/c1-3-23-16(22)12-10-11(14(18)24-13(10)17)15(21)20(19-12)9-6-4-8(2)5-7-9/h4-7H,3,18H2,1-2H3",LHHLQHOWLOICBQ-UHFFFAOYSA-N,Brc1sc(N)c2c1C(=NN(C2=O)c1ccc(cc1)C)C(OCC)=O,C13H18O2,408.276,3.9790,4,312.38,0,130.27551,0,"ethyl 5-amino-7-bromo-4-oxo-3-(p-tolyl)thieno[3,4-d]pyridazine-1-carboxylate"
"InChI=1S/C8H12N4O5/c9-7-10-2-12(8(16)11-7)6-5(15)4(14)3(1-13)17-6/h2-6,13-15H,1H2,(H2,9,11,16)",NMUSYJAQQFHJEW-UHFFFAOYSA-N,O1C(CO)C(O)C(O)C1N1C=NC(=NC1=O)N,C13H9Cl3N2O,244.207,-2.2540,2,188.25,0,314.4838,1,"4-amino-1-[3,4-dihydroxy-5-(hydroxymethyl)tetrahydrofuran-2-yl]-1,3,5-triazin-2-one"
"InChI=1S/C9H12BrN2O8P/c10-4-2-12(9(15)11-8(4)14)7-1-5(13)6(20-7)3-19-21(16,17)18/h2,5-7,13H,1,3H2,(H,11,14,15)(H2,16,17,18)",LHLHVDBXXZVYJT-UHFFFAOYSA-N,BrC1=CN(C2OC(COP(O)(O)=O)C(O)C2)C(=O)NC1=O,C14H12O3,387.07898,-1.8430,4,242.88,0,321.34268,1,"[5-(5-bromo-2,4-dioxo-pyrimidin-1-yl)-3-hydroxy-tetrahydrofuran-2-yl]methyl dihydrogen phosphate"
InChI=1S/C4H6BrNO4/c5-4(6(7)8)1-9-3-10-2-4/h1-3H2,XVBRCOKDZVQYAY-UHFFFAOYSA-N,BrC1([N+](=O)[O-])COCOC1,C15H12N2O,211.99899,1.3420,1,117.50,0,211.89191,0,"5-bromo-5-nitro-1,3-dioxane"
"InChI=1S/C6H5BrN2O/c7-5-1-4(6(8)10)2-9-3-5/h1-3H,(H2,8,10)",YOQRXZIMSKLRCY-UHFFFAOYSA-N,Brc1cc(cnc1)C(=O)N,C4H4KNO4S,201.02299,0.4500,1,139.38,0,126.28088,1,5-bromopyridine-3-carboxamide
"InChI=1S/C11H13N3O/c12-4-3-8-6-14-10-2-1-7(11(13)15)5-9(8)10/h1-2,5-6,14H,3-4,12H2,(H2,13,15)",WKZLNEWVIAGNAW-UHFFFAOYSA-N,O=C(N)c1cc2c([nH]cc2CCN)cc1,C7H6O3,203.245,0.4310,3,190.63,0,224.75111,0,3-(2-aminoethyl)-1<I>H</I>-indole-5-carboxamide
"InChI=1S/C9H12ClN3O4/c10-3-4-6(14)7(15)8(17-4)13-2-1-5(11)12-9(13)16/h1-2,4,6-8,14-15H,3H2,(H2,11,12,16)",BPGIZMWGUQVFSE-UHFFFAOYSA-N,ClCC1OC(N2C=CC(=NC2=O)N)C(O)C1O,C7H8N4O2,261.66501,-1.2810,2,200.38,0,276.12427,1,"4-amino-1-[5-(chloromethyl)-3,4-dihydroxy-tetrahydrofuran-2-yl]pyrimidin-2-one"
"InChI=1S/C6H8O7/c7-2(4(9)6(12)13)1-3(8)5(10)11/h2,4,7,9H,1H2,(H,10,11)(H,12,13)/p-2",QUURPCHWPQNNGL-UHFFFAOYSA-L,OC(C(O)C(=O)[O-])CC(=O)C(=O)[O-],C8H10N4O2,190.10699,-1.9610,5,138.75,0,273.12051,1,"2,3-dihydroxy-5-oxo-hexanedioate"
"InChI=1S/C20H18O5/c1-20(2)8-7-13-16(22)6-5-12(19(13)25-20)15-10-24-17-9-11(21)3-4-14(17)18(15)23/h3-9,15,21-22H,10H2,1-2H3",NUHWTADXTBESTA-UHFFFAOYSA-N,O1c2c(C=CC1(C)C)c(O)ccc2C1COc2c(ccc(O)c2)C1=O,C8H14ClN5,338.35898,3.6720,1,301.38,0,139.05013,0,"7-hydroxy-3-(5-hydroxy-2,2-dimethyl-chromen-8-yl)chroman-4-one"
"InChI=1S/C10H16N5O13P3/c11-8-5-9(13-2-12-8)15(3-14-5)10-7(27-29(17,18)19)6(16)4(26-10)1-25-31(23,24)28-30(20,21)22/h2-4,6-7,10,16H,1H2,(H,23,24)(H2,11,12,13)(H2,17,18,19)(H2,20,21,22)",YPTPYQSAVGGMFN-UHFFFAOYSA-N,P(OCC1OC(n2c3ncnc(N)c3nc2)C(OP(O)(O)=O)C1O)(OP(O)(O)=O)(O)=O,C8H8O3,507.18201,-4.9749,8,315.63,3,549.48224,1,[5-(6-aminopurin-9-yl)-3-hydroxy-4-phosphonooxy-tetrahydrofuran-2-yl]methyl phosphono hydrogen phosphate
"InChI=1S/C11H16N2O5/c1-2-6-4-13(11(17)12-10(6)16)9-3-7(15)8(5-14)18-9/h4,7-9,14-15H,2-3,5H2,1H3,(H,12,16,17)",XACKNLSZYYIACO-UHFFFAOYSA-N,O1C(CO)C(O)CC1N1C=C(CC)C(=O)NC1=O,C8H9NO2,256.258,-1.3140,3,214.88,0,217.52873,0,"5-ethyl-1-[4-hydroxy-5-(hydroxymethyl)tetrahydrofuran-2-yl]pyrimidine-2,4-dione"
"InChI=1S/C15H17FN3O8P/c16-10-6-19(15(22)18-14(10)21)13-5-11(20)12(26-13)7-25-28(23,24)27-9-3-1-8(17)2-4-9/h1-4,6,11-13,20H,5,7,17H2,(H,23,24)(H,18,21,22)",PXZLZKCYKJOBQJ-UHFFFAOYSA-N,P(Oc1ccc(N)cc1)(OCC1OC(N2C=C(F)C(=O)NC2=O)CC1O)(O)=O,C9H10O3,417.28598,-1.0630,6,312.88,1,294.8382,1,"(4-aminophenyl) [5-(5-fluoro-2,4-dioxo-pyrimidin-1-yl)-3-hydroxy-tetrahydrofuran-2-yl]methyl hydrogen phosphate"
"InChI=1S/C9H12FN2O8P/c10-4-2-12(9(15)11-8(4)14)7-1-5(13)6(20-7)3-19-21(16,17)18/h2,5-7,13H,1,3H2,(H,11,14,15)(H2,16,17,18)",HFEKDTCAMMOLQP-UHFFFAOYSA-N,P(OCC1OC(N2C=C(F)C(=O)NC2=O)CC1O)(O)(O)=O,C9H8O2,326.173,-2.4880,4,224.25,0,322.52063,1,"[5-(5-fluoro-2,4-dioxo-pyrimidin-1-yl)-3-hydroxy-tetrahydrofuran-2-yl]methyl dihydrogen phosphate"
"InChI=1S/C9H11FN2O6/c10-4-1-5(14)11-9(17)12(4)8-7(16)6(15)3(2-13)18-8/h1,3,6-8,13,15-16H,2H2,(H,11,14,17)",CECZOBDQSUHPFD-UHFFFAOYSA-N,FC=1N(C2OC(CO)C(O)C2O)C(=O)NC(=O)C=1,C10H11ClO3,262.19299,-1.9970,2,192.38,0,274.15628,0,"1-[3,4-dihydroxy-5-(hydroxymethyl)tetrahydrofuran-2-yl]-6-fluoro-pyrimidine-2,4-dione"
"InChI=1S/C18H19FN4O/c1-23(2)10-9-21-18(24)13-7-3-5-11-15(20)12-6-4-8-14(19)17(12)22-16(11)13/h3-8H,9-10H2,1-2H3,(H2,20,22)(H,21,24)",QEHXKZSBSOBCGM-UHFFFAOYSA-N,Fc1c2nc3c(cccc3C(=O)NCCN(C)C)c(N)c2ccc1,C10H11N3O3S,326.375,2.1910,5,308.00,0,154.08229,1,9-amino-<I>N</I>-[2-(dimethylamino)ethyl]-5-fluoro-acridine-4-carboxamide
"InChI=1S/C11H13FNO4P/c12-9-3-4-11-10(6-9)8(7-13-11)2-1-5-17-18(14,15)16/h3-4,6-7,13H,1-2,5H2,(H2,14,15,16)",YVYGGBFCYXRNKM-UHFFFAOYSA-N,P(OCCCc1c2cc(F)ccc2[nH]c1)(O)(O)=O,C10H12O3,273.19998,1.4180,5,215.00,0,206.26811,0,3-(5-fluoro-1<I>H</I>-indol-3-yl)propyl dihydrogen phosphate
"InChI=1S/C9H6FNO2/c10-6-1-2-7-5(3-6)4-8(11-7)9(12)13/h1-4,11H,(H,12,13)",WTXBRZCVLDTWLP-UHFFFAOYSA-N,Fc1cc2cc([nH]c2cc1)C(O)=O,C12H7Cl3O2,179.14999,1.9750,1,155.38,0,128.94016,1,5-fluoro-1<I>H</I>-indole-2-carboxylic acid
"InChI=1S/C9H11FN2O6/c10-3-1-12(9(17)11-7(3)16)8-6(15)5(14)4(2-13)18-8/h1,4-6,8,13-15H,2H2,(H,11,16,17)",FHIDNBAQOFJWCA-UHFFFAOYSA-N,FC1=CN(C2OC(CO)C(O)C2O)C(=O)NC1=O,C13H10N2O3S,262.19299,-2.6160,2,196.00,0,263.76794,1,"1-[3,4-dihydroxy-5-(hydroxymethyl)tetrahydrofuran-2-yl]-5-fluoro-pyrimidine-2,4-dione"
"InChI=1S/C10H17N6O13P3/c11-10-13-7-4(8(19)14-10)12-2-16(7)9-6(18)5(17)3(28-9)1-27-32(25,26)29-31(23,24)15-30(20,21)22/h2-3,5-6,9,17-18H,1H2,(H,25,26)(H3,11,13,14,19)(H4,15,20,21,22,23,24)",UQABYHGXWYXDTK-UHFFFAOYSA-N,P(OP(OCC1OC(n2c3NC(=NC(=O)c3nc2)N)C(O)C1O)(O)=O)(O)(=O)NP(O)(O)=O,C13H18O2,522.19702,-5.1160,8,320.25,3,540.68494,0,"[[[[5-(2-amino-6-oxo-3<I>H</I>-purin-9-yl)-3,4-dihydroxy-tetrahydrofuran-2-yl]methoxy-hydroxy-phosphoryl]oxy-hydroxy-phosphoryl]amino]phosphonic acid"
"InChI=1S/C21H38O/c1-4-6-16-20(3)17-14-12-10-8-9-11-13-15-19-21(22)18-7-5-2/h2,7,18,20-22H,4,6,8-17,19H2,1,3H3",JTABSNPYEJCSKG-UHFFFAOYSA-N,OC(CCCCCCCCCCC(CCCC)C)C=CC#C,C13H9Cl3N2O,306.534,7.7260,16,336.88,1,52.17104,1,(<I>E</I>)-16-methylicos-3-en-1-yn-5-ol
"InChI=1S/C10H20O3/c1-2-3-4-6-9(11)7-5-8-10(12)13/h9,11H,2-8H2,1H3,(H,12,13)/p-1",LMHJFKYQYDSOQO-UHFFFAOYSA-M,OC(CCCCC)CCCC(=O)[O-],C14H12O3,187.259,2.5960,8,181.63,0,129.06848,0,5-hydroxydecanoate
"InChI=1S/C10H20O3/c1-2-3-4-6-9(11)7-5-8-10(12)13/h9,11H,2-8H2,1H3,(H,12,13)",LMHJFKYQYDSOQO-UHFFFAOYSA-N,OC(CCCCC)CCCC(O)=O,C15H12N2O,188.267,2.4750,8,181.63,0,139.68826,1,5-hydroxydecanoic acid
"InChI=1S/C10H9NO3/c12-7-1-2-9-8(4-7)6(5-11-9)3-10(13)14/h1-2,4-5,11-12H,3H2,(H,13,14)",DUUGKQCEGZLZNO-UHFFFAOYSA-N,Oc1cc2c([nH]cc2CC(O)=O)cc1,C4H4KNO4S,191.18599,1.6010,2,172.13,0,194.30209,1,2-(5-hydroxy-1<I>H</I>-indol-3-yl)acetic acid
"InChI=1S/C15H24N2O6/c1-12(2)14(4,22)13(3,8-19)23-15(12,5)17-6-9(7-18)10(20)16-11(17)21/h6,18-19,22H,7-8H2,1-5H3,(H,16,20,21)",CVLFSBCAJMPUPQ-UHFFFAOYSA-N,O1C(CO)(C)C(O)(C)C(C)(C)C1(N1C=C(CO)C(=O)NC1=O)C,C7H6O3,328.36499,-0.0940,3,249.00,0,218.96602,0,"1-[4-hydroxy-5-(hydroxymethyl)-2,3,3,4,5-pentamethyl-tetrahydrofuran-2-yl]-5-(hydroxymethyl)pyrimidine-2,4-dione"
"InChI=1S/C9H12N2O7/c12-2-4-5(14)6(15)8(18-4)11-1-3(13)7(16)10-9(11)17/h1,4-6,8,12-15H,2H2,(H,10,16,17)",QXDXBKZJFLRLCM-UHFFFAOYSA-N,O1C(CO)C(O)C(O)C1N1C=C(O)C(=O)NC1=O,C7H8N4O2,260.202,-3.0770,2,197.25,0,302.78244,1,"1-[3,4-dihydroxy-5-(hydroxymethyl)tetrahydrofuran-2-yl]-5-hydroxy-pyrimidine-2,4-dione"
"InChI=1S/C9H6INO5/c10-4-1-2-6(5(3-4)8(13)14)11-7(12)9(15)16/h1-3H,(H,11,12)(H,13,14)(H,15,16)",SHSWHSQPJKMCPN-UHFFFAOYSA-N,Ic1cc(C(O)=O)c(NC(=O)C(O)=O)cc1,C8H10N4O2,335.05301,1.4780,4,201.75,0,219.65674,0,5-iodo-2-(oxaloamino)benzoic acid
"InChI=1S/C11H13IN4O4/c12-4-1-16(10-6(4)9(13)14-3-15-10)11-8(19)7(18)5(2-17)20-11/h1,3,5,7-8,11,17-19H,2H2,(H2,13,14,15)",WHSIXKUPQCKWBY-UHFFFAOYSA-N,Ic1c2c(ncnc2N)n(c1)C1OC(CO)C(O)C1O,C8H14ClN5,392.15298,-0.5360,2,244.75,0,262.83276,1,"2-(4-amino-5-iodo-pyrrolo[2,3-d]pyrimidin-7-yl)-5-(hydroxymethyl)tetrahydrofuran-3,4-diol"
"InChI=1S/C20H30O3/c1-2-3-4-5-6-7-8-9-10-11-12-13-14-16-19(21)17-15-18-20(22)23/h6-7,9-10,12-14,16H,2-5,8,11,15,17-18H2,1H3,(H,22,23)",MEASLHGILYBXFO-UHFFFAOYSA-N,OC(=O)CCCC(=O)C=CC=CCC=CCC=CCCCCC,C8H8O3,318.457,4.6470,14,333.88,1,157.03784,1,"(6<I>E</I>,8<I>E</I>,11<I>E</I>,14<I>E</I>)-5-oxoicosa-6,8,11,14-tetraenoic acid"
"InChI=1S/C13H18N2O/c1-15(2)7-6-10-9-14-13-5-4-11(16-3)8-12(10)13/h4-5,8-9,14H,6-7H2,1-3H3",ZSTKHSQDNIGFLM-UHFFFAOYSA-N,O(C)c1cc2c([nH]cc2CCN(C)C)cc1,C8H9NO2,218.29999,2.2370,4,223.38,0,134.76129,1,"2-(5-methoxy-1<I>H</I>-indol-3-yl)-<I>N</I>,<I>N</I>-dimethyl-ethanamine"
"InChI=1S/C11H14N2O/c1-14-9-2-3-11-10(6-9)8(4-5-12)7-13-11/h2-3,6-7,13H,4-5,12H2,1H3",JTEJPPKMYBDEMY-UHFFFAOYSA-N,O(C)c1cc2c([nH]cc2CCN)cc1,C9H10O3,190.246,1.4440,3,186.25,0,158.45473,0,2-(5-methoxy-1<I>H</I>-indol-3-yl)ethanamine
"InChI=1S/C10H16N3O7P/c1-5-3-13(10(15)12-9(5)11)8-2-6(14)7(20-8)4-19-21(16,17)18/h3,6-8,14H,2,4H2,1H3,(H2,11,12,15)(H2,16,17,18)",RGDVNLHBCKWZDA-UHFFFAOYSA-N,P(OCC1OC(N2C=C(C)C(=NC2=O)N)CC1O)(O)(O)=O,C9H8O2,321.22598,-2.3570,4,236.38,0,290.16159,1,[5-(4-amino-5-methyl-2-oxo-pyrimidin-1-yl)-3-hydroxy-tetrahydrofuran-2-yl]methyl dihydrogen phosphate
"InChI=1S/C10H15N3O4/c1-5-3-13(10(16)12-9(5)11)8-2-6(15)7(4-14)17-8/h3,6-8,14-15H,2,4H2,1H3,(H2,11,12,16)",LUCHPKXVUGJYGU-UHFFFAOYSA-N,O1C(CO)C(O)CC1N1C=C(C)C(=NC1=O)N,C10H11ClO3,241.24699,-1.4700,2,201.38,0,191.31285,1,4-amino-1-[4-hydroxy-5-(hydroxymethyl)tetrahydrofuran-2-yl]-5-methyl-pyrimidin-2-one
"InChI=1S/C17H14N2O4/c1-17(14(20)18-16(22)19-15(17)21)11-7-9-13(10-8-11)23-12-5-3-2-4-6-12/h2-10H,1H3,(H2,18,19,20,21,22)",RTBMLCLTYAPKIF-UHFFFAOYSA-N,O(c1ccc(cc1)C1(C)C(=O)NC(=O)NC1=O)c1ccccc1,C10H11N3O3S,310.30899,2.8860,3,270.13,0,168.56645,0,"5-methyl-5-(4-phenoxyphenyl)hexahydropyrimidine-2,4,6-trione"
"InChI=1S/C13H18N2/c1-10-4-5-13-12(8-10)11(9-14-13)6-7-15(2)3/h4-5,8-9,14H,6-7H2,1-3H3",NCGJLYBZSJSCIC-UHFFFAOYSA-N,[nH]1cc(c2cc(ccc12)C)CCN(C)C,C10H12O3,202.30099,2.5790,3,214.88,0,95.410889,1,"<I>N</I>,<I>N</I>-dimethyl-2-(5-methyl-1<I>H</I>-indol-3-yl)ethanamine"
"InChI=1S/C14H23N3O5/c1-8-6-17(10(19)16-9(8)15)14(5)13(4,21)12(3,20)11(2,7-18)22-14/h6,18,20-21H,7H2,1-5H3,(H2,15,16,19)",CIZXLHMVTAUMEE-UHFFFAOYSA-N,O1C(CO)(C)C(O)(C)C(O)(C)C1(N1C=C(C)C(=NC1=O)N)C,C12H7Cl3O2,313.354,-0.3200,2,238.50,0,197.31746,0,"4-amino-1-[3,4-dihydroxy-5-(hydroxymethyl)-2,3,4,5-tetramethyl-tetrahydrofuran-2-yl]-5-methyl-pyrimidin-2-one"
"InChI=1S/C6H6N4O4/c7-6(11)9-8-3-4-1-2-5(14-4)10(12)13/h1-3H,(H3,7,9,11)",IAIWVQXQOWNYOU-UHFFFAOYSA-N,o1c(ccc1[N+](=O)[O-])C=NNC(=O)N,C13H10N2O3S,198.138,0.1810,4,159.75,0,276.00842,1,[(E)-(5-nitro-2-furyl)methyleneamino]urea
"InChI=1S/C9H14N4O7/c14-2-4(16)6(17)3(15)1-10-7-5(13-20)8(18)12-9(19)11-7/h3-4,6,14-17H,1-2H2,(H3,10,11,12,18,19)",YMWIHKCBRFEJMH-UHFFFAOYSA-N,O=C1NC(=O)NC(NCC(O)C(O)C(O)CO)=C1N=O,C13H18O2,290.23199,-3.0600,7,218.00,2,300.83368,1,"5-nitroso-6-(2,3,4,5-tetrahydroxypentylamino)-1<I>H</I>-pyrimidine-2,4-dione"
"InChI=1S/C6H12O5S/c7-1-3(9)5(10)6(11)4(12)2-8/h1,3-6,8-12H,2H2",IJJLRUSZMLMXCN-UHFFFAOYSA-N,SC(C(O)C(O)C(O)C=O)CO,C13H9Cl3N2O,196.22299,-1.7960,5,144.25,0,239.98152,0,"2,3,4,6-tetrahydroxy-5-sulfanyl-hexanal"
"InChI=1S/C17H19N5O5S/c1-10-2-4-11(5-3-10)28(24,25)26-7-13-12(23)6-14(27-13)22-9-21-15-16(18)19-8-20-17(15)22/h2-5,8-9,12-14,23H,6-7H2,1H3,(H2,18,19,20)",JBDNXJYWAILXSS-UHFFFAOYSA-N,S(OCC1OC(n2c3ncnc(N)c3nc2)CC1O)(=O)(=O)c1ccc(cc1)C,C14H12O3,405.435,0.6441,5,331.75,0,253.83231,1,[5-(6-aminopurin-9-yl)-3-hydroxy-tetrahydrofuran-2-yl]methyl 4-methylbenzenesulfonate
"InChI=1S/C21H31BrO3/c1-20-9-7-14(23)11-13(20)3-4-15-16-5-6-18(25-19(24)12-22)21(16,2)10-8-17(15)20/h13,15-18H,3-12H2,1-2H3",LAKSCXFGORLJCZ-UHFFFAOYSA-N,BrCC(OC1CCC2C3C(CCC12C)C1(C(CC(=O)CC1)CC3)C)=O,C15H12N2O,411.38,4.8770,3,311.88,0,162.10107,0,"(10,13-dimethyl-3-oxo-1,2,4,5,6,7,8,9,11,12,14,15,16,17-tetradecahydrocyclopenta[a]phenanthren-17-yl) 2-bromoacetate"
"InChI=1S/C11H19NO8/c1-5(14)12-6(2-3-7(15)11(19)20)9(17)10(18)8(16)4-13/h6,8-10,13,16-18H,2-4H2,1H3,(H,12,14)(H,19,20)",HWTGNSKUIIUDOU-UHFFFAOYSA-N,OC(C(NC(=O)C)CCC(=O)C(O)=O)C(O)C(O)CO,C4H4KNO4S,293.272,-3.1590,10,229.63,1,285.88306,1,"5-acetamido-6,7,8,9-tetrahydroxy-2-oxo-nonanoic acid"
"InChI=1S/C8H4Cl2N2O2/c9-3-1-5-6(2-4(3)10)12-8(14)7(13)11-5/h1-2H,(H,11,13)(H,12,14)",AVBSIKMUAFYZAV-UHFFFAOYSA-N,Clc1cc2NC(=O)C(=O)Nc2cc1Cl,C7H6O3,231.03799,1.1380,0,173.00,0,146.04381,1,"6,7-dichloro-1,4-dihydroquinoxaline-2,3-dione"
"InChI=1S/C25H28O6/c1-13(2)5-11-17-20(27)18(12-6-14(3)4)25-19(21(17)28)22(29)23(30)24(31-25)15-7-9-16(26)10-8-15/h5-10,23-24,26-28,30H,11-12H2,1-4H3",KITBJDQJTLGBAY-UHFFFAOYSA-N,O1c2c(C(=O)C(O)C1c1ccc(O)cc1)c(O)c(CC=C(C)C)c(O)c2CC=C(C)C,C7H8N4O2,424.49298,3.7850,5,393.88,0,185.0303,0,"3,5,7-trihydroxy-2-(4-hydroxyphenyl)-6,8-bis(3-methylbut-2-enyl)chroman-4-one"
"InChI=1S/C25H26O6/c1-13(2)5-11-17-20(27)18(12-6-14(3)4)25-19(21(17)28)22(29)23(30)24(31-25)15-7-9-16(26)10-8-15/h5-10,26-28,30H,11-12H2,1-4H3",HKKPHUAEOHCSKC-UHFFFAOYSA-N,O1c2c(C(=O)C(O)=C1c1ccc(O)cc1)c(O)c(CC=C(C)C)c(O)c2CC=C(C)C,C8H10N4O2,422.47699,4.3710,5,393.88,1,200.40379,1,"3,5,7-trihydroxy-2-(4-hydroxyphenyl)-6,8-bis(3-methylbut-2-enyl)chromen-4-one"
"InChI=1S/C11H15N7O5/c12-11(13)18(22)9-5-8(14-2-15-9)17(3-16-5)10-7(21)6(20)4(1-19)23-10/h2-4,6-7,10,19-22H,1H2,(H3,12,13)",JHROILRGMGNIOT-UHFFFAOYSA-N,O1C(CO)C(O)C(O)C1n1c2ncnc(N(O)C(N)=N)c2nc1,C8H14ClN5,325.285,-2.1779,4,257.25,2,353.75143,0,"1-[9-[3,4-dihydroxy-5-(hydroxymethyl)tetrahydrofuran-2-yl]purin-6-yl]-1-hydroxy-guanidine"
"InChI=1S/C20H28O2/c1-14(12-18(21)22)8-6-11-20(5)13-17-16(15(20)2)9-7-10-19(17,3)4/h6,8,12H,2,7,9-11,13H2,1,3-5H3,(H,21,22)",HEVXQLBAMFMFKU-UHFFFAOYSA-N,OC(=O)C=C(C=CCC1(CC2=C(CCCC2(C)C)C1=C)C)C,C8H8O3,300.44199,3.8760,4,287.38,1,123.88345,1,"(2<I>E</I>,4<I>E</I>)-3-methyl-6-(2,7,7-trimethyl-3-methylene-1,4,5,6-tetrahydroinden-2-yl)hexa-2,4-dienoic acid"
"InChI=1S/C31H47N4O11P/c1-4-5-6-7-8-9-10-11-12-13-20(15-24(38)39)25-19(3)18(2)14-21-26(25)32-27-29(33-31(42)34-30(27)41)35(21)16-22(36)28(40)23(37)17-46-47(43,44)45/h14,20,22-23,28,36-37,40H,4-13,15-17 H2,1-3H3,(H,38,39)(H,34,41,42)(H2,43,44,45)",ZMESPPGIOMLBCU-UHFFFAOYSA-N,P(OCC(O)C(O)C(O)CN1C2=NC(=O)NC(=O)C2=Nc2c1cc(C)c(C)c2C(CCCCCCCCCCC)CC(O)=O)(O)(O)=O,C8H9NO2,682.70801,2.5030,20,559.88,3,473.65787,1,"3-[7,8-dimethyl-2,4-dioxo-10-(2,3,4-trihydroxy-5-phosphonooxy-pentyl)benzo[g]pteridin-6-yl]tetradecanoic acid"
"InChI=1S/C13H9NO/c15-13-11-7-2-1-5-9(11)10-6-3-4-8-12(10)14-13/h1-8H,(H,14,15)",RZFVLEJOHSLEFR-UHFFFAOYSA-N,O=C1Nc2c(-c3c1cccc3)cccc2,C9H10O3,195.22099,2.8470,0,193.00,0,68.849487,0,5<I>H</I>-phenanthridin-6-one
"InChI=1S/C12H9F2O5P/c13-12(14,20(17,18)19)10-4-3-7-5-9(11(15)16)2-1-8(7)6-10/h1-6H,(H,15,16)(H2,17,18,19)",NKGNOWNPXBURRW-UHFFFAOYSA-N,P(O)(O)(=O)C(F)(F)c1cc2c(cc(cc2)C(O)=O)cc1,C9H8O2,302.16901,2.0019,3,219.63,0,271.67801,1,6-[difluoro(phosphono)methyl]naphthalene-2-carboxylic acid
"InChI=1S/C9H14N2O4/c1-5-7(2-6(3-12)4-13)10-9(15)11-8(5)14/h6,12-13H,2-4H2,1H3,(H2,10,11,14,15)",CLCPDSJUXHDRGX-UHFFFAOYSA-N,O=C1NC(=O)NC(CC(CO)CO)=C1C,C10H11ClO3,214.22099,-1.4570,4,179.88,0,231.20538,0,"6-[3-hydroxy-2-(hydroxymethyl)propyl]-5-methyl-1<I>H</I>-pyrimidine-2,4-dione"
"InChI=1S/C8H12N3O9P/c12-4-1-9-11(8(15)10-4)7-6(14)5(13)3(20-7)2-19-21(16,17)18/h1,3,5-7,13-14H,2H2,(H,10,12,15)(H2,16,17,18)",LRVZOSYMNMNQFR-UHFFFAOYSA-N,P(OCC1OC(N2N=CC(=O)NC2=O)C(O)C1O)(O)(O)=O,C10H11N3O3S,325.16998,-3.2590,4,221.50,1,374.73764,1,"[5-(3,5-dioxo-1,2,4-triazin-2-yl)-3,4-dihydroxy-tetrahydrofuran-2-yl]methyl dihydrogen phosphate"
"InChI=1S/C13H11ClN4OS/c1-7(20-13-17-11(14)5-12(15)18-13)9-4-8-2-3-19-10(8)6-16-9/h2-7H,1H3,(H2,15,17,18)",ATCRIOJPQXDFNY-UHFFFAOYSA-N,Clc1nc(SC(C)c2ncc3occc3c2)nc(N)c1,C10H12O3,306.77701,2.7130,3,256.50,0,154.50546,1,"6-chloro-2-(1-furo[2,3-c]pyridin-5-ylethylsulfanyl)pyrimidin-4-amine"
"InChI=1S/C13H15ClN2O2/c1-8(17)15-4-3-9-7-16-12-6-11(14)13(18-2)5-10(9)12/h5-7,16H,3-4H2,1-2H3,(H,15,17)",LUINDDOUWHRIPW-UHFFFAOYSA-N,Clc1cc2[nH]cc(c2cc1OC)CCNC(=O)C,C12H7Cl3O2,266.728,2.2400,5,240.63,0,134.19366,0,<I>N</I>-[2-(6-chloro-5-methoxy-1<I>H</I>-indol-3-yl)ethyl]acetamide
"InChI=1S/C8H10N4/c1-12(2)8-6-3-4-9-7(6)10-5-11-8/h3-5H,1-2H3,(H,9,10,11)",WCSPMWXRKVCSRS-UHFFFAOYSA-N,[nH]1c2ncnc(N(C)C)c2cc1,C13H10N2O3S,162.196,0.2640,1,160.50,0,157.67805,1,"<I>N</I>,<I>N</I>-dimethyl-7<I>H</I>-pyrrolo[2,3-d]pyrimidin-4-amine"
"InChI=1S/C8H10FNO3/c9-5-2-7(12)6(11)1-4(5)8(13)3-10/h1-2,8,11-13H,3,10H2",SBUQBFTXTZSRMH-UHFFFAOYSA-N,Fc1cc(O)c(O)cc1C(O)CN,C13H18O2,187.17,0.1960,2,151.38,0,193.30415,0,"4-(2-amino-1-hydroxy-ethyl)-5-fluoro-benzene-1,2-diol"
"InChI=1S/C19H12N2O/c22-10-14-18-12-6-2-4-8-16(12)20-17(18)9-13-11-5-1-3-7-15(11)21-19(13)14/h1-10,20-21H",ZUDXFBWDXVNRKF-UHFFFAOYSA-N,O=Cc1c2c3c([nH]c2cc2c1[nH]c1c2cccc1)cccc3,C13H9Cl3N2O,284.31799,5.1380,1,279.63,0,82.942886,1,"5,11-dihydroindolo[3,2-b]carbazole-12-carbaldehyde"
"InChI=1S/C13H16N2O3/c1-8(16)14-4-3-9-7-15-11-6-12(17)13(18-2)5-10(9)11/h5-7,15,17H,3-4H2,1-2H3,(H,14,16)",OMYMRCXOJJZYKE-UHFFFAOYSA-N,O(C)c1cc2c([nH]cc2CCNC(=O)C)cc1O,C14H12O3,248.282,1.3400,5,232.00,0,179.55894,1,<I>N</I>-[2-(6-hydroxy-5-methoxy-1<I>H</I>-indol-3-yl)ethyl]acetamide
"InChI=1S/C8H12N2O3/c1-5-6(3-2-4-11)9-8(13)10-7(5)12/h11H,2-4H2,1H3,(H2,9,10,12,13)",OIEJBPVNLZZLGQ-UHFFFAOYSA-N,O=C1NC(=O)NC(CCCO)=C1C,C15H12N2O,184.19499,-0.6080,3,160.38,0,212.41876,0,"6-(3-hydroxypropyl)-5-methyl-1<I>H</I>-pyrimidine-2,4-dione"
"InChI=1S/C20H34O6/c1-2-3-4-7-14(21)10-11-16-17(19(24)13-18(16)23)12-15(22)8-5-6-9-20(25)26/h10-11,14,16-19,21,23-24H,2-9,12-13H2,1H3,(H,25,26)",KFGOFTHODYBSGM-UHFFFAOYSA-N,OC1CC(O)C(C=CC(O)CCCCC)C1CC(=O)CCCCC(O)=O,C4H4KNO4S,370.48599,2.0260,13,337.75,0,262.05441,1,"7-[3,5-dihydroxy-2-[(<I>E</I>)-3-hydroxyoct-1-enyl]cyclopentyl]-6-oxo-heptanoic acid"