InChI,Key,smiles,Formula,Weight,logP(o/w),b_rotN,vol,lip_violation,ASA_P,Natural,ChemicalName
"InChI=1S/C8H6Cl2O3/c1-13-7-5(10)3-2-4(9)6(7)8(11)12/h2-3H,1H3,(H,11,12)",IWEDIXLBFLAXBO-UHFFFAOYSA-N,Clc1ccc(Cl)c(OC)c1C(O)=O,C13H18O2,221.039,2.7170,2,167.00,0,111.98836,0,"3,6-dichloro-2-methoxy-benzoic acid"
InChI=1S/C7H3Cl2N/c8-6-2-1-3-7(9)5(6)4-10/h1-3H,YOYAIZYFCNQIRF-UHFFFAOYSA-N,Clc1cccc(Cl)c1C#N,C13H9Cl3N2O,172.01399,2.7460,1,142.88,0,67.368423,1,"2,6-dichlorobenzonitrile"
"InChI=1S/C14H11Cl2NO2/c15-10-5-3-6-11(16)14(10)17-12-7-2-1-4-9(12)8-13(18)19/h1-7,17H,8H2,(H,18,19)/p-1",DCOPUUMXTXDBNB-UHFFFAOYSA-M,Clc1cccc(Cl)c1Nc1ccccc1CC(=O)[O-],C14H12O3,295.14499,4.3520,4,244.50,0,70.847145,1,"2-[2-(2,6-dichloroanilino)phenyl]acetate"
"InChI=1S/C14H11Cl2NO2/c15-10-5-3-6-11(16)14(10)17-12-7-2-1-4-9(12)8-13(18)19/h1-7,17H,8H2,(H,18,19)",DCOPUUMXTXDBNB-UHFFFAOYSA-N,Clc1cccc(Cl)c1Nc1ccccc1CC(O)=O,C15H12N2O,296.15298,4.2310,4,244.50,0,83.18042,0,"2-[2-(2,6-dichloroanilino)phenyl]acetic acid"
"InChI=1S/C14H13Cl3N6O/c1-6(20-5-7-2-3-8(15)4-9(7)16)21-14(24)10-12(18)23-13(19)11(17)22-10/h2-4,20H,1,5H2,(H,21,24)(H4,18,19,23)",RHERTQVEKAWOCD-UHFFFAOYSA-N,Clc1cc(Cl)ccc1CNC(NC(=O)c1nc(Cl)c(nc1N)N)=C,C4H4KNO4S,387.65799,2.9505,6,310.88,1,254.48822,1,"3,5-diamino-6-chloro-<I>N</I>-[1-[(2,4-dichlorophenyl)methylamino]vinyl]pyrazine-2-carboxamide"
InChI=1S/C14H8Cl4/c15-11-5-1-9(2-6-11)13(14(17)18)10-3-7-12(16)8-4-10/h1-8H,UCNVFOCBFJOQAL-UHFFFAOYSA-N,Clc1ccc(cc1)C(=C(Cl)Cl)c1ccc(Cl)cc1,C7H6O3,318.03,6.8974,2,251.50,1,4.1885638,0,"1-chloro-4-[2,2-dichloro-1-(4-chlorophenyl)vinyl]benzene"
"InChI=1S/C14H9Cl5/c15-11-5-1-9(2-6-11)13(14(17,18)19)10-3-7-12(16)8-4-10/h1-8,13H",YVGGHNCTFXOJCH-UHFFFAOYSA-N,Clc1ccc(cc1)C(C(Cl)(Cl)Cl)c1ccc(Cl)cc1,C7H8N4O2,354.491,6.5031,3,257.38,1,143.99252,1,"1-chloro-4-[2,2,2-trichloro-1-(4-chlorophenyl)ethyl]benzene"
"InChI=1S/C13H10Cl2O2/c14-10-1-3-12(16)8(6-10)5-9-7-11(15)2-4-13(9)17/h1-4,6-7,16-17H,5H2",MDNWOSOZYLHTCG-UHFFFAOYSA-N,Clc1cc(Cc2cc(Cl)ccc2O)c(O)cc1,C8H10N4O2,269.12698,4.5920,2,223.63,0,61.250992,1,4-chloro-2-[(5-chloro-2-hydroxy-phenyl)methyl]phenol
"InChI=1S/C6H6Cl2N2O4S2/c7-4-1-3(15(9,11)12)2-5(6(4)8)16(10,13)14/h1-2H,(H2,9,11,12)(H2,10,13,14)",GJQPMPFPNINLKP-UHFFFAOYSA-N,Clc1c(S(=O)(=O)N)cc(S(=O)(=O)N)cc1Cl,C8H14ClN5,305.16199,0.0160,2,182.38,0,254.90894,0,"4,5-dichlorobenzene-1,3-disulfonamide"
"InChI=1S/C4H7Cl2O4P/c1-8-11(7,9-2)10-3-4(5)6/h3H,1-2H3",OEBRKCOSUFCWJD-UHFFFAOYSA-N,ClC(Cl)=COP(OC)(OC)=O,C8H8O3,220.976,1.0394,4,150.38,0,126.25587,1,"2,2-dichlorovinyl dimethyl phosphate"
"InChI=1S/C19H17Cl2N3O5S/c1-7-10(12(23-29-7)11-8(20)5-4-6-9(11)21)15(25)22-13-16(26)24-14(18(27)28)19(2,3)30-17(13)24/h4-6,13-14,17H,1-3H3,(H,22,25)(H,27,28)/p-1",YFAGHNZHGGCZAX-UHFFFAOYSA-M,Clc1cccc(Cl)c1-c1noc(C)c1C(=O)NC1C2SC(C)(C)C(N2C1=O)C(=O)[O-],C8H9NO2,469.32498,3.2610,5,351.88,0,195.46594,0,"6-[[3-(2,6-dichlorophenyl)-5-methyl-isoxazole-4-carbonyl]amino]-3,3-dimethyl-7-oxo-4-thia-1-azabicyclo[3.2.0]heptane-2-carboxylate"
"InChI=1S/C19H17Cl2N3O5S/c1-7-10(12(23-29-7)11-8(20)5-4-6-9(11)21)15(25)22-13-16(26)24-14(18(27)28)19(2,3)30-17(13)24/h4-6,13-14,17H,1-3H3,(H,22,25)(H,27,28)",YFAGHNZHGGCZAX-UHFFFAOYSA-N,Clc1cccc(Cl)c1-c1noc(C)c1C(=O)NC1C2SC(C)(C)C(N2C1=O)C(O)=O,C9H10O3,470.33298,3.1400,5,351.88,0,191.2016,1,"6-[[3-(2,6-dichlorophenyl)-5-methyl-isoxazole-4-carbonyl]amino]-3,3-dimethyl-7-oxo-4-thia-1-azabicyclo[3.2.0]heptane-2-carboxylic acid"
"InChI=1S/C19H35NO2/c1-3-20(4-2)15-16-22-18(21)19(13-9-6-10-14-19)17-11-7-5-8-12-17/h17H,3-16H2,1-2H3",CURUTKGFNZGFSE-UHFFFAOYSA-N,O(C(=O)C1(CCCCC1)C1CCCCC1)CCN(CC)CC,C9H8O2,309.49399,4.4090,8,293.50,0,38.790405,1,2-(diethylamino)ethyl 1-cyclohexylcyclohexanecarboxylate
"InChI=1S/C10H12N4O3/c15-3-6-1-2-7(17-6)14-5-13-8-9(14)11-4-12-10(8)16/h4-7,15H,1-3H2,(H,11,12,16)",BXZVVICBKDXVGW-UHFFFAOYSA-N,O1C(CCC1n1c2NC=NC(=O)c2nc1)CO,C10H11ClO3,236.231,0.1290,2,201.38,0,210.33199,0,9-[5-(hydroxymethyl)tetrahydrofuran-2-yl]-3<I>H</I>-purin-6-one
"InChI=1S/C10H13N5O2/c1-5-6(16)2-7(17-5)15-4-14-8-9(11)12-3-13-10(8)15/h3-7,16H,2H2,1H3,(H2,11,12,13)",FFHPXOJTVQDVMO-UHFFFAOYSA-N,O1C(C)C(O)CC1n1c2ncnc(N)c2nc1,C10H11N3O3S,235.24699,-0.2689,1,202.63,0,212.91441,1,5-(6-aminopurin-9-yl)-2-methyl-tetrahydrofuran-3-ol
"InChI=1S/C7H7NO4/c9-5-2-1-4(3-6(5)10)7(11)8-12/h1-3,9-10,12H,(H,8,11)",QJMCKEPOKRERLN-UHFFFAOYSA-N,Oc1cc(ccc1O)C(=O)NO,C10H12O3,169.136,0.3230,2,139.00,0,209.55092,0,"3,4-dihydroxybenzenecarbohydroxamic acid"
"InChI=1S/C16H10N2O6S4.2Na/c17-9-26-14-6-4-12(16(8-14)28(22,23)24)2-1-11-3-5-13(18-10-25)7-15(11)27(19,20)21;;/h1-8H,(H,19,20,21)(H,22,23,24);;/q;2*+1/p-2",BMAOZGASBNWXDE-UHFFFAOYSA-L,S(C#N)c1cc(S(=O)(=O)[O-])c(cc1)C=Cc1ccc(N=C=S)cc1S(=O)(=O)[O-].[Na+].[Na+],C12H7Cl3O2,498.492,3.8340,7,425.75,0,735.82947,1,disodium;5-isothiocyanato-2-[(<I>E</I>)-2-(2-sulfonato-4-thiocyanato-phenyl)vinyl]benzenesulfonate
"InChI=1S/C16H10N2O6S4/c17-9-26-14-6-4-12(16(8-14)28(22,23)24)2-1-11-3-5-13(18-10-25)7-15(11)27(19,20)21/h1-8H,(H,19,20,21)(H,22,23,24)",NNVGVUFRTQWUNH-UHFFFAOYSA-N,S(C#N)c1cc(S(O)(=O)=O)c(cc1)C=Cc1ccc(N=C=S)cc1S(O)(=O)=O,C13H10N2O3S,454.52802,3.9340,7,335.75,0,364.02524,1,5-isothiocyanato-2-[(<I>E</I>)-2-(2-sulfo-4-thiocyanato-phenyl)vinyl]benzenesulfonic acid
"InChI=1S/C18H18O2/c1-3-17(13-5-9-15(19)10-6-13)18(4-2)14-7-11-16(20)12-8-14/h3-12,19-20H,1-2H3",NFDFQCUYFHCNBW-UHFFFAOYSA-N,Oc1ccc(cc1)/C(/C(=C/C)/c1ccc(O)cc1)=C\C,C13H9Cl3N2O,266.34,4.6260,3,265.63,0,106.8185,1,"4-[(<I>E</I>,1<I>E</I>)-1-ethylidene-2-(4-hydroxyphenyl)but-2-enyl]phenol"
"InChI=1S/C12H19O3P/c1-4-14-16(13,15-5-2)10-12-8-6-11(3)7-9-12/h6-9H,4-5,10H2,1-3H3",QKGBKPZAXXBLJE-UHFFFAOYSA-N,P(OCC)(OCC)(=O)Cc1ccc(cc1)C,C14H12O3,242.25499,2.2210,6,216.50,0,42.660477,0,1-(diethoxyphosphorylmethyl)-4-methyl-benzene
"InChI=1S/C6H10O5/c1-3-9-5(7)11-6(8)10-4-2/h3-4H2,1-2H3",FFYPMLJYZAEMQB-UHFFFAOYSA-N,O(CC)C(OC(OCC)=O)=O,C15H12N2O,162.14099,1.4160,6,141.88,0,126.55307,1,ethoxycarbonyl ethyl carbonate
"InChI=1S/C10H21N3O/c1-4-12(5-2)10(14)13-8-6-11(3)7-9-13/h4-9H2,1-3H3",RCKMWOKWVGPNJF-UHFFFAOYSA-N,O=C(N(CC)CC)N1CCN(CC1)C,C4H4KNO4S,199.29799,-0.2120,4,196.50,0,87.681908,1,"<I>N</I>,<I>N</I>-diethyl-4-methyl-piperazine-1-carboxamide"
"InChI=1S/C14H23N3O10/c18-10(19)5-15(1-3-16(6-11(20)21)7-12(22)23)2-4-17(8-13(24)25)9-14(26)27/h1-9H2,(H,18,19)(H,20,21)(H,22,23)(H,24,25)(H,26,27)",QPCDCPDFJACHGM-UHFFFAOYSA-N,OC(=O)CN(CCN(CC(O)=O)CC(O)=O)CCN(CC(O)=O)CC(O)=O,C7H6O3,393.349,-2.5540,16,315.38,1,462.21417,0,2-[bis[2-[bis(carboxymethyl)amino]ethyl]amino]acetic acid
"InChI=1S/C18H20O2/c1-3-17(13-5-9-15(19)10-6-13)18(4-2)14-7-11-16(20)12-8-14/h5-12,19-20H,3-4H2,1-2H3",RGLYKWWBQGJZGM-UHFFFAOYSA-N,Oc1ccc(cc1)C(=C(CC)c1ccc(O)cc1)CC,C7H8N4O2,268.35599,5.0620,4,265.63,0,96.154732,1,4-[(<I>E</I>)-1-ethyl-2-(4-hydroxyphenyl)but-1-enyl]phenol
"InChI=1S/C21H27NO/c23-21(19-11-4-1-5-12-19,20-13-6-2-7-14-20)15-10-18-22-16-8-3-9-17-22/h1-2,4-7,11-14,23H,3,8-10,15-18H2",OGAKLTJNUQRZJU-UHFFFAOYSA-N,OC(CCCN1CCCCC1)(c1ccccc1)c1ccccc1,C8H10N4O2,309.453,5.0940,6,303.00,0,44.438118,0,"1,1-diphenyl-4-(1-piperidyl)butan-1-ol"
"InChI=1S/C26H32F2O7/c1-13-8-17-18-10-20(27)19-9-16(31)6-7-23(19,4)25(18,28)21(32)11-24(17,5)26(13,35-15(3)30)22(33)12-34-14(2)29/h6-7,9,13,17-18,20-21,32H,8,10-12H2,1-5H3",BOBLHFUVNSFZPJ-UHFFFAOYSA-N,FC12C(C3CC(C)C(OC(=O)C)(C(=O)COC(=O)C)C3(CC1O)C)CC(F)C1=CC(=O)C=CC12C,C8H14ClN5,494.53098,3.4770,6,358.13,0,209.25002,1,"[2-(17-acetoxy-6,9-difluoro-11-hydroxy-10,13,16-trimethyl-3-oxo-6,7,8,11,12,14,15,16-octahydrocyclopenta[a]phenanthren-17-yl)-2-oxo-ethyl] acetate"
"InChI=1S/C27H36F2O5/c1-14-9-16-17-11-19(28)18-10-15(30)7-8-26(18,6)27(17,29)21(32)12-25(16,5)22(14)20(31)13-34-23(33)24(2,3)4/h7-8,10,14,16-17,19,21-22,32H,9,11-13H2,1-6H3",UWGRWFCLGQWKPR-UHFFFAOYSA-N,FC12C(C3CC(C)C(C(=O)COC(=O)C(C)(C)C)C3(CC1O)C)CC(F)C1=CC(=O)C=CC12C,C8H8O3,478.57599,4.5410,5,386.50,0,170.06285,1,"[2-(6,9-difluoro-11-hydroxy-10,13,16-trimethyl-3-oxo-7,8,11,12,14,15,16,17-octahydro-6<I>H</I>-cyclopenta[a]phenanthren-17-yl)-2-oxo-ethyl] 2,2-dimethylpropanoate"
"InChI=1S/C27H36F2O5/c1-5-6-7-23(33)34-14-21(31)24-15(2)10-17-18-12-20(28)19-11-16(30)8-9-26(19,4)27(18,29)22(32)13-25(17,24)3/h8-9,11,15,17-18,20,22,24,32H,5-7,10,12-14H2,1-4H3",HHJIUUAMYGBVSD-UHFFFAOYSA-N,FC12C(C3CC(C)C(C(=O)COC(=O)CCCC)C3(CC1O)C)CC(F)C1=CC(=O)C=CC12C,C8H9NO2,478.57599,4.6990,7,390.25,0,174.67078,0,"[2-(6,9-difluoro-11-hydroxy-10,13,16-trimethyl-3-oxo-7,8,11,12,14,15,16,17-octahydro-6<I>H</I>-cyclopenta[a]phenanthren-17-yl)-2-oxo-ethyl] pentanoate"
"InChI=1S/C13H8F2O3/c14-8-2-3-9(11(15)6-8)7-1-4-12(16)10(5-7)13(17)18/h1-6,16H,(H,17,18)",HUPFGZXOMWLGNK-UHFFFAOYSA-N,Fc1cc(F)ccc1-c1cc(C(O)=O)c(O)cc1,C9H10O3,250.2,3.6110,2,213.88,0,123.68825,1,"5-(2,4-difluorophenyl)-2-hydroxy-benzoic acid"
"InChI=1S/C27H34F2O7/c1-5-6-23(34)36-26(22(33)14-35-15(2)30)10-8-17-18-12-20(28)19-11-16(31)7-9-24(19,3)27(18,29)21(32)13-25(17,26)4/h7,9,11,17-18,20-21,32H,5-6,8,10,12-14H2,1-4H3",WYQPLTPSGFELIB-UHFFFAOYSA-N,FC12C(C3CCC(OC(=O)CCC)(C(=O)COC(=O)C)C3(CC1O)C)CC(F)C1=CC(=O)C=CC12C,C9H8O2,508.55798,4.0360,8,390.00,1,192.11192,0,"[17-(2-acetoxyacetyl)-6,9-difluoro-11-hydroxy-10,13-dimethyl-3-oxo-6,7,8,11,12,14,15,16-octahydrocyclopenta[a]phenanthren-17-yl] butanoate"
"InChI=1S/C41H64O13/c1-20-36(46)29(42)16-34(49-20)53-38-22(3)51-35(18-31(38)44)54-37-21(2)50-33(17-30(37)43)52-25-8-11-39(4)24(15-25)6-7-28-27(39)9-12-40(5)26(10-13-41(28,40)47)23-14-32(45)48-19-23/h14 ,20-22,24-31,33-38,42-44,46-47H,6-13,15-19H2,1-5H3",WDJUZGPOPHTGOT-UHFFFAOYSA-N,O1C(C)C(OC2OC(C)C(O)C(O)C2)C(O)CC1OC1C(OC(OC2CC3CCC4C(CCC5(C)C(CCC45O)C4=CC(OC4)=O)C3(CC2)C)CC1O)C,C10H11ClO3,764.94995,4.3390,7,608.63,2,283.85419,1,"3-[3-[5-[5-(4,5-dihydroxy-6-methyl-tetrahydropyran-2-yl)oxy-4-hydroxy-6-methyl-tetrahydropyran-2-yl]oxy-4-hydroxy-6-methyl-tetrahydropyran-2-yl]oxy-14-hydroxy-10,13-dimethyl-1,2,3,4,5,6,7,8,9,11,12,15 ,16,17-tetradecahydrocyclopenta[a]phenanthren-17-yl]-2<I>H</I>-furan-5-one"
"InChI=1S/C41H64O14/c1-19-36(47)28(42)15-34(50-19)54-38-21(3)52-35(17-30(38)44)55-37-20(2)51-33(16-29(37)43)53-24-8-10-39(4)23(13-24)6-7-26-27(39)14-31(45)40(5)25(9-11-41(26,40)48)22-12-32(46)49-18-22/ h12,19-21,23-31,33-38,42-45,47-48H,6-11,13-18H2,1-5H3",LTMHDMANZUZIPE-UHFFFAOYSA-N,O1C(C)C(OC2OC(C)C(O)C(O)C2)C(O)CC1OC1C(OC(OC2CC3CCC4C(CC(O)C5(C)C(CCC45O)C4=CC(OC4)=O)C3(CC2)C)CC1O)C,C10H11N3O3S,780.94897,3.3240,7,612.00,3,289.20081,1,"3-[3-[5-[5-(4,5-dihydroxy-6-methyl-tetrahydropyran-2-yl)oxy-4-hydroxy-6-methyl-tetrahydropyran-2-yl]oxy-4-hydroxy-6-methyl-tetrahydropyran-2-yl]oxy-12,14-dihydroxy-10,13-dimethyl-1,2,3,4,5,6,7,8,9,11, 12,15,16,17-tetradecahydrocyclopenta[a]phenanthren-17-yl]-2<I>H</I>-furan-5-one"
"InChI=1S/C18H23NO3/c1-19-8-7-18-11-4-5-13(20)17(18)22-16-14(21-2)6-3-10(15(16)18)9-12(11)19/h3,6,11-13,17,20H,4-5,7-9H2,1-2H3",RBOXVHNMENFORY-UHFFFAOYSA-N,O1C2C34C(C(N(CC3)C)Cc3c4c1c(OC)cc3)CCC2O,C10H12O3,301.38599,1.7830,1,247.13,0,111.37811,0,"9-methoxy-3-methyl-2,4,4<I>a</I>,5,6,7,7<I>a</I>,13-octahydro-1<I>H</I>-4,12-methanobenzofuro[3,2-e]isoquinoline-7-ol"
"InChI=1S/C29H46O12/c1-13-22(34)23(35)24(36)25(40-13)41-15-8-19(32)28(12-30)21-17(3-5-27(28,37)9-15)29(38)6-4-16(14-7-20(33)39-11-14)26(29,2)10-18(21)31/h13-19,21-25,30-32,34-38H,3-12H2,1-2H3",ZTFGOPUOTATSAL-UHFFFAOYSA-N,O1C(C)C(O)C(O)C(O)C1OC1CC2(O)CCC3C(C2(CO)C(O)C1)C(O)CC1(C)C(CCC13O)C1CC(OC1)=O,C14H12O3,586.67499,-0.8200,4,440.13,3,306.41129,0,"4-[1,5,11,14-tetrahydroxy-10-(hydroxymethyl)-13-methyl-3-(3,4,5-trihydroxy-6-methyl-tetrahydropyran-2-yl)oxy-2,3,4,6,7,8,9,11,12,15,16,17-dodecahydro-1<I>H</I>-cyclopenta[a]phenanthren-17-yl]tetrahydr ofuran-2-one"
"InChI=1S/C21H41N7O12/c1-5-21(36,4-30)16(40-17-9(26-2)13(34)10(31)6(3-29)38-17)18(37-5)39-15-8(28-20(24)25)11(32)7(27-19(22)23)12(33)14(15)35/h5-18,26,29-36H,3-4H2,1-2H3,(H4,22,23,27)(H4,24,25,28)",ASXBYYWOLISCLQ-UHFFFAOYSA-N,O1C(CO)C(O)C(O)C(NC)C1OC1C(O)(CO)C(OC1OC1C(N=C(N)N)C(O)C(N=C(N)N)C(O)C1O)C,C15H12N2O,583.59601,-6.9573,9,424.50,3,486.01563,1,"2-[2-[3-[4,5-dihydroxy-6-(hydroxymethyl)-3-(methylamino)tetrahydropyran-2-yl]oxy-4-hydroxy-4-(hydroxymethyl)-5-methyl-tetrahydrofuran-2-yl]oxy-5-guanidino-3,4,6-trihydroxy-cyclohexyl]guanidine"
"InChI=1S/C28H46O/c1-19(2)20(3)9-10-22(5)26-15-16-27-23(8-7-17-28(26,27)6)12-13-24-18-25(29)14-11-21(24)4/h9-10,12-13,19-22,25-27,29H,7-8,11,14-18H2,1-6H3",ILYCWAKSDCYMBB-UHFFFAOYSA-N,OC1CC(=CC=C2C3CCC(C(C=CC(C(C)C)C)C)C3(CCC2)C)C(CC1)C,C4H4KNO4S,398.67499,6.8620,5,396.88,1,48.786781,0,"(3<I>E</I>)-3-[(2<I>E</I>)-2-[7<I>a</I>-methyl-1-[(<I>E</I>)-1,4,5-trimethylhex-2-enyl]-2,3,3<I>a</I>,5,6,7-hexahydro-1<I>H</I>-inden-4-ylidene]ethylidene]-4-methyl-cyclohexanol"
"InChI=1S/C17H14N2/c1-3-7-16-14(5-1)12(10-18-16)9-13-11-19-17-8-4-2-6-15(13)17/h1-8,10-11,18-19H,9H2",VFTRKSBEFQDZKX-UHFFFAOYSA-N,[nH]1cc(c2c1cccc2)Cc1c2c([nH]c1)cccc2,C7H6O3,246.31299,4.3560,2,253.25,0,96.4067,1,3-(1H-indol-3-ylmethyl)-1<I>H</I>-indole
"InChI=1S/C7H17O3P/c1-6(2)9-11(5,8)10-7(3)4/h6-7H,1-5H3",WOAFDHWYKSOANX-UHFFFAOYSA-N,P(OC(C)C)(OC(C)C)(=O)C,C7H8N4O2,180.18399,1.0590,4,149.00,0,41.502239,1,2-[isopropoxy(methyl)phosphoryl]oxypropane
"InChI=1S/C31H44N2O10/c1-36-24-18-22(19-25(37-2)28(24)40-5)30(34)42-16-8-12-32-10-7-11-33(15-14-32)13-9-17-43-31(35)23-20-26(38-3)29(41-6)27(21-23)39-4/h18-21H,7-17H2,1-6H3",QVZCXCJXTMIDME-UHFFFAOYSA-N,O(C)c1c(OC)cc(cc1OC)C(OCCCN1CCCN(CC1)CCCOC(=O)c1cc(OC)c(OC)c(OC)c1)=O,C8H10N4O2,604.69696,3.0150,18,564.75,2,292.91693,0,"3-[4-[3-(3,4,5-trimethoxybenzoyl)oxypropyl]-1,4-diazepan-1-yl]propyl 3,4,5-trimethoxybenzoate"
"InChI=1S/C22H26N2O4S/c1-15(25)28-20-21(16-9-11-17(27-4)12-10-16)29-19-8-6-5-7-18(19)24(22(20)26)14-13-23(2)3/h5-12,20-21H,13-14H2,1-4H3/p+1",HSUGRBWQSSZJOP-UHFFFAOYSA-O,S1c2c(N(CC[NH+](C)C)C(=O)C(OC(=O)C)C1c1ccc(OC)cc1)cccc2,C8H14ClN5,415.534,3.2640,7,375.88,0,187.36992,1,"2-[3-acetoxy-2-(4-methoxyphenyl)-4-oxo-2,3-dihydro-1,5-benzothiazepin-5-yl]ethyl-dimethyl-ammonium"
"InChI=1S/C22H26N2O4S/c1-15(25)28-20-21(16-9-11-17(27-4)12-10-16)29-19-8-6-5-7-18(19)24(22(20)26)14-13-23(2)3/h5-12,20-21H,13-14H2,1-4H3",HSUGRBWQSSZJOP-UHFFFAOYSA-N,S1c2c(N(CCN(C)C)C(=O)C(OC(=O)C)C1c1ccc(OC)cc1)cccc2,C8H8O3,414.526,3.2640,7,375.88,0,154.61121,0,"[5-[2-(dimethylamino)ethyl]-2-(4-methoxyphenyl)-4-oxo-2,3-dihydro-1,5-benzothiazepin-3-yl] acetate"
"InChI=1S/C6H15N3S/c1-9(2)4-3-5-10-6(7)8/h3-5H2,1-2H3,(H3,7,8)",OLHQOJYVQUNWPL-UHFFFAOYSA-N,S(CCCN(C)C)C(N)=N,C8H9NO2,161.27299,0.8720,5,147.00,0,209.10168,1,2-[3-(dimethylamino)propyl]isothiourea
"InChI=1S/C20H21NO3/c1-13-18(22)15-10-11-17(23-4)16(12-21(2)3)20(15)24-19(13)14-8-6-5-7-9-14/h5-11H,12H2,1-4H3",ZXFQRFXLFWWKLX-UHFFFAOYSA-N,O1c2c(ccc(OC)c2CN(C)C)C(=O)C(C)=C1c1ccccc1,C9H10O3,323.392,3.4960,4,315.50,0,104.53883,1,8-[(dimethylamino)methyl]-7-methoxy-3-methyl-2-phenyl-chromen-4-one
"InChI=1S/C3H8OS2/c4-1-3(6)2-5/h3-6H,1-2H2",WQABCVAJNWAXTE-UHFFFAOYSA-N,SC(CO)CS,C10H11ClO3,124.228,0.6190,2,92.50,0,157.62582,0,"2,3-bis(sulfanyl)propan-1-ol"
"InChI=1S/C5H7NO3/c1-5(2)3(7)6-4(8)9-5/h1-2H3,(H,6,7,8)",JYJFNDQBESEHJQ-UHFFFAOYSA-N,O1C(C)(C)C(=O)NC1=O,C10H11N3O3S,129.11499,0.1970,0,103.63,0,146.02208,1,"5,5-dimethyloxazolidine-2,4-dione"
"InChI=1S/C5H12NO3PS2/c1-6-5(7)4-12-10(11,8-2)9-3/h4H2,1-3H3,(H,6,7)",MCWXGJITAZMZEV-UHFFFAOYSA-N,S(P(=S)(OC)OC)CC(=O)NC,C10H11ClO3,229.261,0.7320,6,163.25,0,242.76334,1,2-dimethoxyphosphinothioylsulfanyl-<I>N</I>-methyl-acetamide
"InChI=1S/C18H23N3O12.4Na/c1-32-13-3-10(11(21(30)31)4-14(13)33-2)12(20(8-17(26)27)9-18(28)29)5-19(6-15(22)23)7-16(24)25;;;;/h3-4,12H,5-9H2,1-2H3,(H,22,23)(H,24,25)(H,26,27)(H,28,29);;;;/q;4*+1/p-4",KCTLZBKLHCBAMY-UHFFFAOYSA-J,[Na+].[Na+].[Na+].[Na+].O(C)c1cc(C(N(CC(=O)[O-])CC(=O)[O-])CN(CC(=O)[O-])CC(=O)[O-])c([N+](=O)[O-])cc1OC,C10H11N3O3S,561.31897,0.1257,15,531.13,2,1100.2275,0,"tetrasodium;2-[[2-[bis(carboxylatomethyl)amino]-2-(4,5-dimethoxy-2-nitro-phenyl)ethyl]-(carboxylatomethyl)amino]acetate"
"InChI=1S/C18H23N3O12/c1-32-13-3-10(11(21(30)31)4-14(13)33-2)12(20(8-17(26)27)9-18(28)29)5-19(6-15(22)23)7-16(24)25/h3-4,12H,5-9H2,1-2H3,(H,22,23)(H,24,25)(H,26,27)(H,28,29)",FKXGYESXGMKAKC-UHFFFAOYSA-N,O(C)c1cc(C(N(CC(O)=O)CC(O)=O)CN(CC(O)=O)CC(O)=O)c([N+](=O)[O-])cc1OC,C10H12O3,473.39099,-0.3583,15,353.75,1,456.65845,1,"2-[[2-[bis(carboxymethyl)amino]-2-(4,5-dimethoxy-2-nitro-phenyl)ethyl]-(carboxymethyl)amino]acetic acid"
InChI=1S/C4H6O5/c1-7-3(5)9-4(6)8-2/h1-2H3,GZDFHIJNHHMENY-UHFFFAOYSA-N,O(C(OC)=O)C(OC)=O,C12H7Cl3O2,134.08699,0.7340,4,111.63,0,177.23912,0,methoxycarbonyl methyl carbonate
"InChI=1S/C43H86NO5/c1-5-7-9-11-13-15-17-19-21-23-25-27-29-31-33-35-42(46)48-40-41(39-44(3,4)37-38-45)49-43(47)36-34-32-30-28-26-24-22-20-18-16-14-12-10-8-6-2/h41,45H,5-40H2,1-4H3/q+1",NRZHPOWMSSPCPW-UHFFFAOYSA-N,O(C(C[N+](CCO)(C)C)COC(=O)CCCCCCCCCCCCCCCCC)C(=O)CCCCCCCCCCCCCCCCC,C13H10N2O3S,697.16296,13.0247,41,706.13,2,142.17268,1,"2,3-di(octadecanoyloxy)propyl-(2-hydroxyethyl)-dimethyl-ammonium"
"InChI=1S/C19H25N3O2S2/c1-14(20(2)3)13-22-16-8-6-7-9-18(16)25-19-11-10-15(12-17(19)22)26(23,24)21(4)5/h6-12,14H,13H2,1-5H3",VWNWVCJGUMZDIU-UHFFFAOYSA-N,S1c2c(N(c3c1cccc3)CC(N(C)C)C)cc(S(=O)(=O)N(C)C)cc2,C13H9Cl3N2O,391.56,2.7980,5,338.88,0,170.68248,0,"10-[2-(dimethylamino)propyl]-<I>N</I>,<I>N</I>-dimethyl-phenothiazine-2-sulfonamide"
"InChI=1S/C5H7N3O2/c1-4-6-3-5(7(4)2)8(9)10/h3H,1-2H3",IBXPYPUJPLLOIN-UHFFFAOYSA-N,O=[N+]([O-])c1n(C)c(nc1)C,C14H12O3,141.13,0.7030,1,125.38,0,112.84033,1,"1,2-dimethyl-5-nitro-imidazole"
"InChI=1S/C20H38N4O4/c1-3-5-7-21(19(25)23-11-15-27-16-12-23)9-10-22(8-6-4-2)20(26)24-13-17-28-18-14-24/h3-18H2,1-2H3",HZTMGWSBSDLALI-UHFFFAOYSA-N,O1CCN(CC1)C(=O)N(CCCC)CCN(CCCC)C(=O)N1CCOCC1,C15H12N2O,398.548,0.7980,13,375.13,0,161.77237,0,<I>N</I>-butyl-<I>N</I>-[2-[butyl(morpholine-4-carbonyl)amino]ethyl]morpholine-4-carboxamide
"InChI=1S/C8H7N3O5/c1-4-6(8(9)12)2-5(10(13)14)3-7(4)11(15)16/h2-3H,1H3,(H2,9,12)",ZEFNOZRLAWVAQF-UHFFFAOYSA-N,O=C(N)c1cc([N+](=O)[O-])cc([N+](=O)[O-])c1C,C4H4KNO4S,225.15999,1.0870,3,179.63,0,258.51694,1,"2-methyl-3,5-dinitro-benzamide"
"InChI=1S/C18H34O4/c1-3-5-7-9-11-13-17(19)21-15-16-22-18(20)14-12-10-8-6-4-2/h3-16H2,1-2H3",HTNFLUQQANUSLR-UHFFFAOYSA-N,O(C(=O)CCCCCCC)CCOC(=O)CCCCCCC,C7H6O3,314.466,5.2017,17,316.38,0,62.559772,1,2-octanoyloxyethyl octanoate
"InChI=1S/C16H35N/c1-3-5-7-9-11-13-15-17-16-14-12-10-8-6-4-2/h17H,3-16H2,1-2H3",LAWOZCWGWDVVSG-UHFFFAOYSA-N,N(CCCCCCCC)CCCCCCCC,C7H8N4O2,241.463,6.2290,14,263.38,1,28.775784,0,<I>N</I>-octyloctan-1-amine
"InChI=1S/C24H27NO3/c1-13-11-20(28-5)23-17(7-6-8-19(23)27-4)21(13)18-10-9-16-12-14(2)25-15(3)22(16)24(18)26/h6-11,14-15,25-26H,12H2,1-5H3",MXIZZLBQRBAZEX-UHFFFAOYSA-N,O(C)c1c2c(cccc2OC)c(-c2ccc3c(c2O)C(NC(C3)C)C)c(c1)C,C8H10N4O2,377.48398,5.6260,3,360.00,1,98.233673,1,"7-(4,5-dimethoxy-2-methyl-1-naphthyl)-1,3-dimethyl-1,2,3,4-tetrahydroisoquinolin-8-ol"
"InChI=1S/C14H12O4/c1-18-12-8-4-6-10(14(12)17)13(16)9-5-2-3-7-11(9)15/h2-8,15,17H,1H3",XVKQPUIECIHBCC-UHFFFAOYSA-N,O(C)c1cccc(C(=O)c2ccccc2O)c1O,C8H14ClN5,244.24599,2.7550,3,227.88,0,108.52184,0,(2-hydroxy-3-methoxy-phenyl)-(2-hydroxyphenyl)methanone
"InChI=1S/C35H69O8P.Na/c1-3-5-7-9-11-13-15-17-19-21-23-25-27-29-34(36)41-31-33(32-42-44(38,39)40)43-35(37)30-28-26-24-22-20-18-16-14-12-10-8-6-4-2;/h33H,3-32H2,1-2H3,(H2,38,39,40);/q;+1/p-1",BMBWFDPPCSTUSZ-UHFFFAOYSA-M,P(OCC(OC(=O)CCCCCCCCCCCCCCC)COC(=O)CCCCCCCCCCCCCCC)(O)(=O)[O-].[Na+],C8H8O3,670.88501,10.5155,36,659.13,2,362.98175,1,"sodium;2,3-di(hexadecanoyloxy)propyl hydrogen phosphate"
"InChI=1S/C35H69O8P/c1-3-5-7-9-11-13-15-17-19-21-23-25-27-29-34(36)41-31-33(32-42-44(38,39)40)43-35(37)30-28-26-24-22-20-18-16-14-12-10-8-6-4-2/h33H,3-32H2,1-2H3,(H2,38,39,40)",PORPENFLTBBHSG-UHFFFAOYSA-N,P(OCC(OC(=O)CCCCCCCCCCCCCCC)COC(=O)CCCCCCCCCCCCCCC)(O)(O)=O,C8H9NO2,648.90302,10.5655,36,613.00,2,191.93649,1,(2-hexadecanoyloxy-3-phosphonooxy-propyl) hexadecanoate
"InChI=1S/C17H21NO/c1-18(2)13-14-19-17(15-9-5-3-6-10-15)16-11-7-4-8-12-16/h3-12,17H,13-14H2,1-2H3",ZZVUWRFHKOJYTH-UHFFFAOYSA-N,O(C(c1ccccc1)c1ccccc1)CCN(C)C,C9H10O3,255.36099,3.7820,6,269.00,0,49.099266,0,"2-benzhydryloxy-<I>N</I>,<I>N</I>-dimethyl-ethanamine"