InChI,Key,smiles,Formula,Weight,logP(o/w),b_rotN,vol,lip_violation,ASA_P,Natural,ChemicalName
"InChI=1S/C4H10NO5P/c6-4-5(7)2-1-3-11(8,9)10/h4,7H,1-3H2,(H2,8,9,10)",GJXWDTUCERCKIX-UHFFFAOYSA-N,P(O)(O)(=O)CCCN(O)C=O,C7H6O3,183.09999,-1.8650,5,125.75,0,243.87579,0,3-[formyl(hydroxy)amino]propylphosphonic acid
"InChI=1S/C40H56/c1-31(19-13-21-33(3)25-27-37-35(5)23-15-29-39(37,7)8)17-11-12-18-32(2)20-14-22-34(4)26-28-38-36(6)24-16-30-40(38,9)10/h11-14,17-22,25-28H,15-16,23-24,29-30H2,1-10H3",OENHQHLEOONYIE-UHFFFAOYSA-N,C1CCC(C)=C(\C=C\C(=C\C=C\C(=C\C=C\C=C(\C=C\C=C(\C=C\C=2C(CCCC=2C)(C)C)/C)/C)\C)\C)C1(C)C,C7H8N4O2,536.888,17.4380,10,577.50,2,5.9882212,1,"1,3,3-trimethyl-2-[(1<I>E</I>,3<I>E</I>,5<I>E</I>,7<I>E</I>,9<I>E</I>,11<I>E</I>,13<I>E</I>,15<I>E</I>,17<I>E</I>)-3,7,12,16-tetramethyl-18-(2,6,6-trimethylcyclohexen-1-yl)octadeca-1,3,5,7,9,11,13,15, 17-nonaenyl]cyclohexene"
"InChI=1S/C12H23NO10/c13-3-5(16)4(15)2(1-14)22-12(3)23-11-9(20)7(18)6(17)8(19)10(11)21/h2-12,14-21H,1,13H2/p+1",HEPUIGACZYVUCD-UHFFFAOYSA-O,O1C(CO)C(O)C(O)C([NH3+])C1OC1C(O)C(O)C(O)C(O)C1O,C8H10N4O2,342.32098,-5.6380,3,240.38,2,333.06152,1,"[4,5-dihydroxy-6-(hydroxymethyl)-2-(2,3,4,5,6-pentahydroxycyclohexoxy)tetrahydropyran-3-yl]ammonium"
"InChI=1S/C12H23NO10/c13-3-5(16)4(15)2(1-14)22-12(3)23-11-9(20)7(18)6(17)8(19)10(11)21/h2-12,14-21H,1,13H2",HEPUIGACZYVUCD-UHFFFAOYSA-N,O1C(CO)C(O)C(O)C(N)C1OC1C(O)C(O)C(O)C(O)C1O,C8H14ClN5,341.31299,-5.6380,3,240.38,2,341.95032,1,"6-[3-amino-4,5-dihydroxy-6-(hydroxymethyl)tetrahydropyran-2-yl]oxycyclohexane-1,2,3,4,5-pentol"
"InChI=1S/C14H25NO11/c1-3(17)15-5-7(19)6(18)4(2-16)25-14(5)26-13-11(23)9(21)8(20)10(22)12(13)24/h4-14,16,18-24H,2H2,1H3,(H,15,17)",MRKTUVZZZRUSQR-UHFFFAOYSA-N,O1C(CO)C(O)C(O)C(NC(=O)C)C1OC1C(O)C(O)C(O)C(O)C1O,C8H8O3,383.35001,-5.4690,5,273.50,2,338.23834,0,"<I>N</I>-[4,5-dihydroxy-6-(hydroxymethyl)-2-(2,3,4,5,6-pentahydroxycyclohexoxy)tetrahydropyran-3-yl]acetamide"
"InChI=1S/C17H30N2O12S/c1-4(21)18-5(3-32)16(29)19-7-9(23)8(22)6(2-20)30-17(7)31-15-13(27)11(25)10(24)12(26)14(15)28/h5-15,17,20,22-28,32H,2-3H2,1H3,(H,18,21)(H,19,29)",MQBCDKMPXVYCGO-UHFFFAOYSA-N,SCC(NC(=O)C)C(=O)NC1C(O)C(O)C(OC1OC1C(O)C(O)C(O)C(O)C1O)CO,C8H9NO2,486.495,-5.7700,9,352.13,2,435.54422,1,"2-acetamido-<I>N</I>-[4,5-dihydroxy-6-(hydroxymethyl)-2-(2,3,4,5,6-pentahydroxycyclohexoxy)tetrahydropyran-3-yl]-3-sulfanyl-propanamide"
"InChI=1S/C5H9NO3S/c1-3(7)6-4(2-10)5(8)9/h4,10H,2H2,1H3,(H,6,7)(H,8,9)",PWKSKIMOESPYIA-UHFFFAOYSA-N,SCC(NC(=O)C)C(O)=O,C9H10O3,163.19701,-0.3800,4,127.38,0,197.74884,1,2-acetamido-3-sulfanyl-propanoic acid
"InChI=1S/C34H58N4O24S2/c1-7(41)35-9(31(57)37-13-17(45)15(43)11(3-39)59-33(13)61-29-25(53)21(49)19(47)22(50)26(29)54)5-63-64-6-10(36-8(2)42)32(58)38-14-18(46)16(44)12(4-40)60-34(14)62-30-27(55)23(51)20 (48)24(52)28(30)56/h9-30,33-34,39-40,43-56H,3-6H2,1-2H3",YKSIHFDRGQQOCJ-UHFFFAOYSA-N,S(SCC(NC(=O)C)C(=O)NC1C(O)C(O)C(OC1OC1C(O)C(O)C(O)C(O)C1O)CO)CC(NC(=O)C)C(=O)NC1C(O)C(O)C(OC1OC1C(O)C(O)C(O)C(O)C1O)CO,C9H8O2,970.974,-11.2260,21,680.00,3,707.95508,0,"2-acetamido-3-[[2-acetamido-3-[[4,5-dihydroxy-6-(hydroxymethyl)-2-(2,3,4,5,6-pentahydroxycyclohexoxy)tetrahydropyran-3-yl]amino]-3-oxo-propyl]disulfanyl]-<I>N</I>-[4,5-dihydroxy-6-(hydroxymethyl)-2-(2 ,3,4,5,6-pentahydroxycyclohexoxy)tetrahydropyran-3-yl]propanamide"
"InChI=1S/C11H15N2O/c1-12-7-3-4-9(8-12)10-5-6-11(14)13(10)2/h3-4,7-8,10H,5-6H2,1-2H3/q+1",VHRXFWHPQMABEK-UHFFFAOYSA-N,O=C1N(C)C(CC1)c1ccc[n+](c1)C,C10H11ClO3,191.254,1.3530,1,190.50,0,110.29142,1,1-methyl-5-(1-methylpyridin-1-ium-3-yl)pyrrolidin-2-one
"InChI=1S/C10H8O4/c11-9(12)10(13)6-5-7-3-1-2-4-8(7)14-10/h1-6,13H,(H,11,12)",LGYIZQLNYONEFJ-UHFFFAOYSA-N,O1c2c(C=CC1(O)C(O)=O)cccc2,C10H11N3O3S,192.17,1.9360,1,164.63,0,142.66884,0,2-hydroxychromene-2-carboxylic acid
"InChI=1S/C10H8O4/c11-8-4-2-1-3-7(8)5-6-9(12)10(13)14/h1-6,11H,(H,13,14)",HMXOGGUFCBUALL-UHFFFAOYSA-N,Oc1ccccc1C=CC(=O)C(O)=O,C10H12O3,192.17,1.4720,3,174.38,0,167.25008,1,(<I>E</I>)-4-(2-hydroxyphenyl)-2-oxo-but-3-enoic acid
"InChI=1S/C4H9N3O2/c1-7(4(5)6)2-3(8)9/h2H2,1H3,(H3,5,6)(H,8,9)",CVSVTCORWBXHQV-UHFFFAOYSA-N,OC(=O)CN(C(N)=N)C,C12H7Cl3O2,131.13499,-0.6190,3,111.75,0,212.81607,1,2-[carbamimidoyl(methyl)amino]acetic acid
"InChI=1S/C4H10N3O5P/c1-7(2-3(8)9)4(5)6-13(10,11)12/h2H2,1H3,(H,8,9)(H4,5,6,10,11,12)",DRBBFCLWYRJSJZ-UHFFFAOYSA-N,P(O)(O)(=O)NC(N(CC(O)=O)C)=N,C13H10N2O3S,211.114,-1.7350,5,145.13,0,302.15558,0,2-[methyl-(<I>N</I>-phosphonocarbamimidoyl)amino]acetic acid
"InChI=1S/C4H7N3O/c1-7-2-3(8)6-4(7)5/h2H2,1H3,(H2,5,6,8)",DDRJAANPRJIHGJ-UHFFFAOYSA-N,O=C1N=C(N)N(C1)C,C13H18O2,113.12,-0.3940,0,99.50,0,181.44028,1,2-amino-3-methyl-4<I>H</I>-imidazol-5-one
"InChI=1S/C7H13NO2/c1-8(2,3)6-4-5-7(9)10/h4-5H,6H2,1-3H3",GUYHPGUANSLONG-UHFFFAOYSA-N,O=C([O-])\C=C\C[N+](C)(C)C,C13H9Cl3N2O,143.18599,0.1160,3,136.75,0,171.88147,0,(<I>E</I>)-4-(trimethylammonio)but-2-enoate
"InChI=1S/C7H13NO2/c1-8(2,3)6-4-5-7(9)10/h4-5H,6H2,1-3H3/p+1",GUYHPGUANSLONG-UHFFFAOYSA-O,OC(=O)\C=C\C[N+](C)(C)C,C14H12O3,144.194,-0.0050,3,136.75,0,170.16663,1,[(<I>E</I>)-3-carboxyallyl]-trimethyl-ammonium
"InChI=1S/C28H47N8O17P3S/c1-28(2,23(40)26(41)31-9-8-18(37)30-10-12-57-19(38)7-6-11-36(3,4)5)14-50-56(47,48)53-55(45,46)49-13-17-22(52-54(42,43)44)21(39)27(51-17)35-16-34-20-24(29)32-15-33-25(20)35/h6-7 ,15-17,21-23,27,39-40H,8-14H2,1-5H3,(H7-,29,30,31,32,33",WAUPBDVHJXXZGW-UHFFFAOYSA-O,S(C(=O)C=CC[N+](C)(C)C)CCNC(=O)CCNC(=O)C(O)C(COP(OP(OCC1OC(n2c3ncnc(N)c3nc2)C(O)C1OP(O)(O)=O)(O)=O)(O)=O)(C)C,C15H12N2O,893.71899,-4.9589,25,648.38,3,638.48358,1,"[(<I>Z</I>)-4-[2-[3-[[4-[[[5-(6-aminopurin-9-yl)-4-hydroxy-3-phosphonooxy-tetrahydrofuran-2-yl]methoxy-hydroxy-phosphoryl]oxy-hydroxy-phosphoryl]oxy-2-hydroxy-3,3-dimethyl-butanoyl]amino]propanoylamin o]ethylsulfanyl]-4-oxo-but-2-enyl]-trimethyl-ammonium"
"InChI=1S/C25H40N7O17P3S/c1-4-5-16(34)53-9-8-27-15(33)6-7-28-23(37)20(36)25(2,3)11-46-52(43,44)49-51(41,42)45-10-14-19(48-50(38,39)40)18(35)24(47-14)32-13-31-17-21(26)29-12-30-22(17)32/h4-5,12-14,18-20 ,24,35-36H,6-11H2,1-3H3,(H,27,33)(H,28,37)(H,41,42)(H,4",KFWWCMJSYSSPSK-UHFFFAOYSA-N,S(C(=O)C=CC)CCNC(=O)CCNC(=O)C(O)C(COP(OP(OCC1OC(n2c3ncnc(N)c3nc2)C(O)C1OP(O)(O)=O)(O)=O)(O)=O)(C)C,C4H4KNO4S,835.61499,-4.3889,23,595.50,3,673.19031,0,"<I>S</I>-[2-[3-[[4-[[[5-(6-aminopurin-9-yl)-4-hydroxy-3-phosphonooxy-tetrahydrofuran-2-yl]methoxy-hydroxy-phosphoryl]oxy-hydroxy-phosphoryl]oxy-2-hydroxy-3,3-dimethyl-butanoyl]amino]propanoylamino]eth yl] (<I>E</I>)-but-2-enethioate"
"InChI=1S/C9H16N3O14P3/c10-5-1-2-12(9(15)11-5)8-7(14)6(13)4(24-8)3-23-28(19,20)26-29(21,22)25-27(16,17)18/h1-2,4,6-8,13-14H,3H2,(H,19,20)(H,21,22)(H2,10,11,15)(H2,16,17,18)",PCDQPRRSZKQHHS-UHFFFAOYSA-N,P(OCC1OC(N2C=CC(=NC2=O)N)C(O)C1O)(OP(OP(O)(O)=O)(O)=O)(O)=O,C7H6O3,483.15601,-5.1800,8,292.25,2,496.69016,1,"[[5-(4-amino-2-oxo-pyrimidin-1-yl)-3,4-dihydroxy-tetrahydrofuran-2-yl]methoxy-hydroxy-phosphoryl] phosphono hydrogen phosphate"
"InChI=1S/C3H7NO2S/c4-2(1-7)3(5)6/h2,7H,1,4H2,(H,5,6)",XUJNEKJLAYXESH-UHFFFAOYSA-N,SCC(N)C(O)=O,C7H8N4O2,121.16,-2.9477,2,90.50,0,210.14441,0,2-amino-3-sulfanyl-propanoic acid
"InChI=1S/C6H12N2O4S2/c7-3(5(9)10)1-13-14-2-4(8)6(11)12/h3-4H,1-2,7-8H2,(H,9,10)(H,11,12)",LEVWYRKDKASIDU-UHFFFAOYSA-N,S(SCC(N)C(O)=O)CC(N)C(O)=O,C8H10N4O2,240.304,-3.1827,7,170.38,1,342.54874,1,2-amino-3-[(2-amino-2-carboxy-ethyl)disulfanyl]propanoic acid
"InChI=1S/C9H13N3O5/c10-5-1-2-12(9(16)11-5)8-7(15)6(14)4(3-13)17-8/h1-2,4,6-8,13-15H,3H2,(H2,10,11,16)",UHDGCWIWMRVCDJ-UHFFFAOYSA-N,O1C(CO)C(O)C(O)C1N1C=CC(=NC1=O)N,C8H14ClN5,243.21899,-2.5290,2,192.38,0,267.90747,1,"4-amino-1-[3,4-dihydroxy-5-(hydroxymethyl)tetrahydrofuran-2-yl]pyrimidin-2-one"
"InChI=1S/C4H5N3O/c5-3-1-2-6-4(8)7-3/h1-2H,(H3,5,6,7,8)",OPTASPLRGRRNAP-UHFFFAOYSA-N,O=C1NC(N)=CC=N1,C8H8O3,111.104,-0.1310,0,95.50,0,201.59001,0,6-amino-1<I>H</I>-pyrimidin-2-one
"InChI=1S/C2H6O3S2/c3-7(4,5)2-1-6/h6H,1-2H2,(H,3,4,5)",ZNEWHQLOPFWXOF-UHFFFAOYSA-N,S(O)(=O)(=O)CCS,C8H9NO2,142.19901,-0.4000,2,87.50,0,184.68985,1,2-sulfanylethanesulfonic acid
"InChI=1S/C5H6O6/c6-2(4(8)9)1-3(7)5(10)11/h2,6H,1H2,(H,8,9)(H,10,11)",WXSKVKPSMAHCSG-UHFFFAOYSA-N,OC(CC(=O)C(O)=O)C(O)=O,C9H10O3,162.097,-1.6300,4,119.63,0,264.10684,0,2-hydroxy-4-oxo-pentanedioic acid
"InChI=1S/C6H11O9P/c7-3-2(1-14-16(11,12)13)15-6(10)5(9)4(3)8/h2-5,7-9H,1H2,(H2,11,12,13)",IJOJIVNDFQSGAB-UHFFFAOYSA-N,P(OCC1OC(=O)C(O)C(O)C1O)(O)(O)=O,C9H8O2,258.11899,-3.4720,3,165.63,0,294.6778,1,"(3,4,5-trihydroxy-6-oxo-tetrahydropyran-2-yl)methyl dihydrogen phosphate"
"InChI=1S/C6H12N2O3/c1-3(7)5(9)8-4(2)6(10)11/h3-4H,7H2,1-2H3,(H,8,9)(H,10,11)",DEFJQIDDEAULHB-UHFFFAOYSA-N,OC(=O)C(NC(=O)C(N)C)C,C10H11ClO3,160.173,-1.0700,4,136.63,0,182.28215,1,2-(2-aminopropanoylamino)propanoic acid
"InChI=1S/C3H7NO2/c1-2(4)3(5)6/h2H,4H2,1H3,(H,5,6)",QNAYBMKLOCPYGJ-UHFFFAOYSA-N,OC(=O)C(N)C,C10H11N3O3S,89.094002,-3.0577,1,77.13,0,151.04686,0,2-aminopropanoic acid
"InChI=1S/C6H13O9P/c7-1-3(8)5(10)6(11)4(9)2-15-16(12,13)14/h4-7,9-11H,1-2H2,(H2,12,13,14)",GSXOAOHZAIYLCY-UHFFFAOYSA-N,P(OCC(O)C(O)C(O)C(=O)CO)(O)(O)=O,C10H12O3,260.13501,-4.1490,7,170.88,1,317.52652,1,"(2,3,4,6-tetrahydroxy-5-oxo-hexyl) dihydrogen phosphate"
"InChI=1S/C6H12O7/c7-1-2(8)3(9)4(10)5(11)6(12)13/h2-5,7-11H,1H2,(H,12,13)",RGHNJXZEOKUKBD-UHFFFAOYSA-N,OC(C(O)C(O)CO)C(O)C(O)=O,C12H7Cl3O2,196.155,-3.1910,5,141.13,1,253.40164,0,"2,3,4,5,6-pentahydroxyhexanoic acid"
"InChI=1S/C28H49N8O18P3S/c1-28(2,23(41)26(42)31-7-6-18(38)30-8-9-58-19(39)10-16(37)11-36(3,4)5)13-51-57(48,49)54-56(46,47)50-12-17-22(53-55(43,44)45)21(40)27(52-17)35-15-34-20-24(29)32-14-33-25(20)35/h 14-17,21-23,27,37,40-41H,6-13H2,1-5H3,(H7-,29,30,31,32,",BBRISSLDTUHWKG-UHFFFAOYSA-O,S(C(=O)CC(O)C[N+](C)(C)C)CCNC(=O)CCNC(=O)C(O)C(COP(OP(OCC1OC(n2c3ncnc(N)c3nc2)C(O)C1OP(O)(O)=O)(O)=O)(O)=O)(C)C,C13H10N2O3S,911.73401,-6.0879,26,655.50,3,688.24573,1,"[4-[2-[3-[[4-[[[5-(6-aminopurin-9-yl)-4-hydroxy-3-phosphonooxy-tetrahydrofuran-2-yl]methoxy-hydroxy-phosphoryl]oxy-hydroxy-phosphoryl]oxy-2-hydroxy-3,3-dimethyl-butanoyl]amino]propanoylamino]ethylsulf anyl]-2-hydroxy-4-oxo-butyl]-trimethyl-ammonium"
"InChI=1S/C6H11N2O6P/c9-5(2-14-15(11,12)13)6(10)4-1-7-3-8-4/h1,3,5-6,9-10H,2H2,(H,7,8)(H2,11,12,13)",HFYBTHCYPKEDQQ-UHFFFAOYSA-N,P(OCC(O)C(O)c1[nH]cnc1)(O)(O)=O,C13H18O2,238.136,-3.1180,5,166.00,0,257.04822,1,"[2,3-dihydroxy-3-(1<I>H</I>-imidazol-5-yl)propyl] dihydrogen phosphate"
"InChI=1S/C6H10O8/c7-1(3(9)5(11)12)2(8)4(10)6(13)14/h1-4,7-10H,(H,11,12)(H,13,14)",DSLZVSRJTYRBFB-UHFFFAOYSA-N,OC(C(O)C(O)C(O)=O)C(O)C(O)=O,C13H9Cl3N2O,210.138,-2.9920,5,146.13,1,282.6908,0,"2,3,4,5-tetrahydroxyhexanedioic acid"
"InChI=1S/C6H10O6/c7-1-2(8)5-3(9)4(10)6(11)12-5/h2-5,7-10H,1H2",SXZYCXMUPBBULW-UHFFFAOYSA-N,O1C(C(O)CO)C(O)C(O)C1=O,C14H12O3,178.14,-2.5850,2,130.63,0,218.02489,1,"5-(1,2-dihydroxyethyl)-3,4-dihydroxy-tetrahydrofuran-2-one"
"InChI=1S/C6H14NO8P/c7-3-5(9)4(8)2(15-6(3)10)1-14-16(11,12)13/h2-6,8-10H,1,7H2,(H2,11,12,13)",XHMJOUIAFHJHBW-UHFFFAOYSA-N,P(OCC1OC(O)C(N)C(O)C1O)(O)(O)=O,C15H12N2O,259.151,-4.0410,3,168.25,1,342.41611,0,"(5-amino-3,4,6-trihydroxy-tetrahydropyran-2-yl)methyl dihydrogen phosphate"
"InChI=1S/C6H10O7/c7-1-2(8)4(5(10)11)13-6(12)3(1)9/h1-4,6-9,12H,(H,10,11)",AEMOLEFTQBMNLQ-UHFFFAOYSA-N,O1C(C(O)=O)C(O)C(O)C(O)C1O,C4H4KNO4S,194.13899,-2.7330,1,135.25,0,261.03156,1,"3,4,5,6-tetrahydroxytetrahydropyran-2-carboxylic acid"
"InChI=1S/C5H9NO4/c6-3(5(9)10)1-2-4(7)8/h3H,1-2,6H2,(H,7,8)(H,9,10)",WHUUTDBJXJRKMK-UHFFFAOYSA-N,OC(=O)C(N)CCC(O)=O,C7H6O3,147.12999,-3.3637,4,116.50,0,239.6843,1,2-aminopentanedioic acid
"InChI=1S/C3H6O3/c1-2(4)3(5)6/h2,4H,1H3,(H,5,6)",JVTAAEKCZFNVCJ-UHFFFAOYSA-N,OC(C(O)=O)C,C7H8N4O2,90.077995,-0.4370,1,75.88,0,143.55168,0,2-hydroxypropanoic acid
"InChI=1S/C25H40N7O19P3S/c1-12(23(37)38)24(39)55-7-6-27-14(33)4-5-28-21(36)18(35)25(2,3)9-48-54(45,46)51-53(43,44)47-8-13-17(50-52(40,41)42)16(34)22(49-13)32-11-31-15-19(26)29-10-30-20(15)32/h10-13,16- 18,22,34-35H,4-9H2,1-3H3,(H,27,33)(H,28,36)(H,37,38)(H,",MZFOKIKEPGUZEN-UHFFFAOYSA-N,S(C(=O)C(C(O)=O)C)CCNC(=O)CCNC(=O)C(O)C(COP(OP(OCC1OC(n2c3ncnc(N)c3nc2)C(O)C1OP(O)(O)=O)(O)=O)(O)=O)(C)C,C8H10N4O2,867.61298,-5.1959,24,609.00,3,738.66974,1,"3-[2-[3-[[4-[[[5-(6-aminopurin-9-yl)-4-hydroxy-3-phosphonooxy-tetrahydrofuran-2-yl]methoxy-hydroxy-phosphoryl]oxy-hydroxy-phosphoryl]oxy-2-hydroxy-3,3-dimethyl-butanoyl]amino]propanoylamino]ethylsulfa nyl]-2-methyl-3-oxo-propanoic acid"
"InChI=1S/C5H9NO2/c7-5(8)4-2-1-3-6-4/h4,6H,1-3H2,(H,7,8)",ONIBWKKTOPOVIA-UHFFFAOYSA-N,OC(=O)C1NCCC1,C8H14ClN5,115.132,0.0570,1,100.00,0,132.42001,0,pyrrolidine-2-carboxylic acid
"InChI=1S/C5H11O8P/c6-1-3(7)5(9)4(8)2-13-14(10,11)12/h3,5-7,9H,1-2H2,(H2,10,11,12)",NBOCCPQHBPGYCX-UHFFFAOYSA-N,P(OCC(=O)C(O)C(O)CO)(O)(O)=O,C8H8O3,230.10899,-3.5760,6,149.25,0,279.12085,1,"(3,4,5-trihydroxy-2-oxo-pentyl) dihydrogen phosphate"
"InChI=1S/C7H15O10P/c8-1-3(9)5(11)7(13)6(12)4(10)2-17-18(14,15)16/h4-8,10-13H,1-2H2,(H2,14,15,16)",JDTUMPKOJBQPKX-UHFFFAOYSA-N,P(OCC(O)C(O)C(O)C(O)C(=O)CO)(O)(O)=O,C8H9NO2,290.16098,-4.7220,8,190.38,1,336.24625,1,"(2,3,4,5,7-pentahydroxy-6-oxo-heptyl) dihydrogen phosphate"
"InChI=1S/C3H7NO3/c4-2(1-5)3(6)7/h2,5H,1,4H2,(H,6,7)",MTCFGRXMJLQNBG-UHFFFAOYSA-N,OC(=O)C(N)CO,C9H10O3,105.09299,-4.0927,2,80.50,0,197.51245,0,2-amino-3-hydroxy-propanoic acid
"InChI=1S/C6H15O9P/c7-1-3(8)5(10)6(11)4(9)2-15-16(12,13)14/h3-11H,1-2H2,(H2,12,13,14)",GACTWZZMVMUKNG-UHFFFAOYSA-N,P(OCC(O)C(O)C(O)C(O)CO)(O)(O)=O,C9H8O2,262.151,-4.2770,7,170.88,1,314.06091,1,"2,3,4,5,6-pentahydroxyhexyl dihydrogen phosphate"
"InChI=1S/C5H10O5/c6-1-3(8)5(10)4(9)2-7/h3,5-8,10H,1-2H2",ZAQJHHRNXZUBTE-UHFFFAOYSA-N,OC(C(O)CO)C(=O)CO,C10H11ClO3,150.12999,-2.6890,4,113.88,0,217.71233,0,"1,3,4,5-tetrahydroxypentan-2-one"
"InChI=1S/C10H15N5O9P2/c11-9-8-10(13-3-12-9)15(4-14-8)7-1-5(16)6(23-7)2-22-26(20,21)24-25(17,18)19/h3-7,16H,1-2H2,(H,20,21)(H2,11,12,13)(H2,17,18,19)",DAEAPNUQQAICNR-UHFFFAOYSA-N,P(OCC1OC(n2c3ncnc(N)c3nc2)CC1O)(OP(O)(O)=O)(O)=O,C10H11N3O3S,411.20401,-3.0729,6,277.13,2,430.22202,1,[5-(6-aminopurin-9-yl)-3-hydroxy-tetrahydrofuran-2-yl]methyl phosphono hydrogen phosphate
"InChI=1S/C10H14N5O6P/c11-9-8-10(13-3-12-9)15(4-14-8)7-1-5(16)6(21-7)2-20-22(17,18)19/h3-7,16H,1-2H2,(H2,11,12,13)(H2,17,18,19)",KHWCHTKSEGGWEX-UHFFFAOYSA-N,P(OCC1OC(n2c3ncnc(N)c3nc2)CC1O)(O)(O)=O,C10H12O3,331.22501,-2.1909,4,245.38,1,348.59628,1,[5-(6-aminopurin-9-yl)-3-hydroxy-tetrahydrofuran-2-yl]methyl dihydrogen phosphate
"InChI=1S/C10H16N5O12P3/c11-9-8-10(13-3-12-9)15(4-14-8)7-1-5(16)6(25-7)2-24-29(20,21)27-30(22,23)26-28(17,18)19/h3-7,16H,1-2H2,(H,20,21)(H,22,23)(H2,11,12,13)(H2,17,18,19)",SUYVUBYJARFZHO-UHFFFAOYSA-N,P(OCC1OC(n2c3ncnc(N)c3nc2)CC1O)(OP(OP(O)(O)=O)(O)=O)(O)=O,C12H7Cl3O2,491.18298,-3.9549,8,309.00,2,500.87521,0,[[5-(6-aminopurin-9-yl)-3-hydroxy-tetrahydrofuran-2-yl]methoxy-hydroxy-phosphoryl] phosphono hydrogen phosphate
"InChI=1S/C9H15N3O10P2/c10-7-1-2-12(9(14)11-7)8-3-5(13)6(21-8)4-20-24(18,19)22-23(15,16)17/h1-2,5-6,8,13H,3-4H2,(H,18,19)(H2,10,11,14)(H2,15,16,17)",FTDHDKPUHBLBTL-UHFFFAOYSA-N,P(OCC1OC(N2C=CC(=NC2=O)N)CC1O)(OP(O)(O)=O)(O)=O,C13H10N2O3S,387.17801,-3.2830,6,254.25,2,407.73486,1,[5-(4-amino-2-oxo-pyrimidin-1-yl)-3-hydroxy-tetrahydrofuran-2-yl]methyl phosphono hydrogen phosphate
"InChI=1S/C9H14N3O7P/c10-7-1-2-12(9(14)11-7)8-3-5(13)6(19-8)4-18-20(15,16)17/h1-2,5-6,8,13H,3-4H2,(H2,10,11,14)(H2,15,16,17)",NCMVOABPESMRCP-UHFFFAOYSA-N,P(OCC1OC(N2C=CC(=NC2=O)N)CC1O)(O)(O)=O,C13H18O2,307.19901,-2.4010,4,223.00,0,307.87778,0,[5-(4-amino-2-oxo-pyrimidin-1-yl)-3-hydroxy-tetrahydrofuran-2-yl]methyl dihydrogen phosphate
"InChI=1S/C9H16N3O13P3/c10-7-1-2-12(9(14)11-7)8-3-5(13)6(23-8)4-22-27(18,19)25-28(20,21)24-26(15,16)17/h1-2,5-6,8,13H,3-4H2,(H,18,19)(H,20,21)(H2,10,11,14)(H2,15,16,17)",RGWHQCVHVJXOKC-UHFFFAOYSA-N,P(OCC1OC(N2C=CC(=NC2=O)N)CC1O)(OP(OP(O)(O)=O)(O)=O)(O)=O,C13H9Cl3N2O,467.15698,-4.1650,8,287.88,2,468.37985,1,[[5-(4-amino-2-oxo-pyrimidin-1-yl)-3-hydroxy-tetrahydrofuran-2-yl]methoxy-hydroxy-phosphoryl] phosphono hydrogen phosphate
"InChI=1S/C6H12O6/c7-2-4(9)6(12)3(8)1-5(10)11/h3-4,6-9,12H,1-2H2,(H,10,11)",PALQXFMLVVWXFD-UHFFFAOYSA-N,OC(C(O)CC(O)=O)C(O)CO,C14H12O3,180.15599,-2.5300,5,133.75,0,238.83124,1,"3,4,5,6-tetrahydroxyhexanoic acid"
"InChI=1S/C6H10O6/c7-2-4(9)6(12)3(8)1-5(10)11/h4,6-7,9,12H,1-2H2,(H,10,11)",CNLFCQPCBQQMHK-UHFFFAOYSA-N,OC(C(O)CO)C(=O)CC(O)=O,C15H12N2O,178.14,-2.4020,5,133.75,0,226.31668,0,"4,5,6-trihydroxy-3-oxo-hexanoic acid"
"InChI=1S/C21H26N6O15P2/c22-17-12-18(24-7-23-17)27(8-25-12)20-16(31)14(29)11(41-20)6-39-44(36,37)42-43(34,35)38-5-10-13(28)15(30)19(40-10)26-3-1-2-9(4-26)21(32)33/h1-4,7-8,10-11,13-16,19-20,28-31H,5-6H 2,(H4-,22,23,24,32,33,34,35,36,37)/p+1",SENPVEZBRZQVST-UHFFFAOYSA-O,P(OCC1OC(n2c3ncnc(N)c3nc2)C(O)C1O)(OP(OCC1OC([n+]2cc(ccc2)C(O)=O)C(O)C1O)(O)=O)(O)=O,C4H4KNO4S,665.422,-3.9609,11,478.25,3,591.74408,1,"1-[5-[[[[5-(6-aminopurin-9-yl)-3,4-dihydroxy-tetrahydrofuran-2-yl]methoxy-hydroxy-phosphoryl]oxy-hydroxy-phosphoryl]oxymethyl]-3,4-dihydroxy-tetrahydrofuran-2-yl]pyridin-1-ium-3-carboxylic acid"
"InChI=1S/C17H25N7O6/c1-23(16(19)20)6-4-9(18)8-12(26)21-10-2-3-13(30-14(10)15(27)28)24-7-5-11(25)22-17(24)29/h2-3,5,7,9-10,13-14H,4,6,8,18H2,1H3,(H3,19,20)(H,21,26)(H,27,28)(H,22,25,29)",REIIQZAQCCFGIJ-UHFFFAOYSA-N,O1C(C(O)=O)C(NC(=O)CC(N)CCN(C(N)=N)C)C=CC1N1C=CC(=O)NC1=O,C7H6O3,423.42999,-2.2900,10,361.50,2,445.64838,0,"3-[[3-amino-5-[carbamimidoyl(methyl)amino]pentanoyl]amino]-6-(2,4-dioxopyrimidin-1-yl)-3,6-dihydro-2<I>H</I>-pyran-2-carboxylic acid"
"InChI=1S/C7H10O6/c8-3-1-7(13,6(11)12)2-4(9)5(3)10/h3,5,8,10,13H,1-2H2,(H,11,12)",WVMWZWGZRAXUBK-UHFFFAOYSA-N,OC1C(O)CC(O)(CC1=O)C(O)=O,C7H8N4O2,190.151,-2.1250,1,133.38,0,232.96559,1,"1,3,4-trihydroxy-5-oxo-cyclohexanecarboxylic acid"
"InChI=1S/C18H37NO2/c1-2-3-4-5-6-7-8-9-10-11-12-13-14-15-18(21)17(19)16-20/h17,20H,2-16,19H2,1H3",KBUNOSOGGAARKZ-UHFFFAOYSA-N,OCC(N)C(=O)CCCCCCCCCCCCCCC,C8H10N4O2,299.49899,4.7030,16,301.88,0,139.66103,1,2-amino-1-hydroxy-octadecan-3-one
"InChI=1S/C7H9NO4/c9-6(10)4-2-1-3-5(8-4)7(11)12/h4H,1-3H2,(H,9,10)(H,11,12)",CXMBCXQHOXUCEO-UHFFFAOYSA-N,OC(=O)C1N=C(CCC1)C(O)=O,C8H14ClN5,171.15199,-0.3530,2,140.38,0,200.69116,0,"2,3,4,5-tetrahydropyridine-2,6-dicarboxylic acid"
"InChI=1S/C50H70O2/c1-38(2)19-12-20-39(3)21-13-22-40(4)23-14-24-41(5)25-15-26-42(6)27-16-28-43(7)29-17-30-44(8)31-18-32-45(9)35-36-46-37-49(51)47-33-10-11-34-48(47)50(46)52/h10-11,19,21,23,25,27,29,31, 33-35,37H,12-18,20,22,24,26,28,30,32,36H2,1-9H3",GDUBPWSFXUAETN-UHFFFAOYSA-N,O=C1c2c(cccc2)C(=O)C=C1CC=C(CCC=C(CCC=C(CCC=C(CCC=C(CCC=C(CCC=C(CCC=C(C)C)C)C)C)C)C)C)C,C8H8O3,703.10797,8.5180,23,758.63,2,141.83223,1,"2-[(2<I>Z</I>,6<I>E</I>,10<I>E</I>,14<I>Z</I>,18<I>E</I>,22<I>Z</I>,26<I>Z</I>)-3,7,11,15,19,23,27,31-octamethyldotriaconta-2,6,10,14,18,22,26,30-octaenyl]naphthalene-1,4-dione"
"InChI=1S/C5H11O7P/c6-2-4-3(7)1-5(11-4)12-13(8,9)10/h3-7H,1-2H2,(H2,8,9,10)",KBDKAJNTYKVSEK-UHFFFAOYSA-N,P(OC1OC(CO)C(O)C1)(O)(O)=O,C8H9NO2,214.11,-2.2310,3,138.13,0,260.5556,0,[4-hydroxy-5-(hydroxymethyl)tetrahydrofuran-2-yl] dihydrogen phosphate
"InChI=1S/C5H11O7P/c6-3-1-5(7)12-4(3)2-11-13(8,9)10/h3-7H,1-2H2,(H2,8,9,10)",KKZFLSZAWCYPOC-UHFFFAOYSA-N,P(OCC1OC(O)CC1O)(O)(O)=O,C9H10O3,214.11,-2.2310,3,138.75,0,240.60416,1,"(3,5-dihydroxytetrahydrofuran-2-yl)methyl dihydrogen phosphate"
"InChI=1S/C10H13N5O3/c11-9-8-10(13-3-12-9)15(4-14-8)7-1-5(17)6(2-16)18-7/h3-7,16-17H,1-2H2,(H2,11,12,13)",OLXZPDWKRNYJJZ-UHFFFAOYSA-N,O1C(CO)C(O)CC1n1c2ncnc(N)c2nc1,C9H8O2,251.246,-1.3039,2,211.88,0,266.17035,1,5-(6-aminopurin-9-yl)-2-(hydroxymethyl)tetrahydrofuran-3-ol
"InChI=1S/C9H13N3O4/c10-7-1-2-12(9(15)11-7)8-3-5(14)6(4-13)16-8/h1-2,5-6,8,13-14H,3-4H2,(H2,10,11,15)",CKTSBUTUHBMZGZ-UHFFFAOYSA-N,O1C(CO)C(O)CC1N1C=CC(=NC1=O)N,C10H11ClO3,227.22,-1.5140,2,187.25,0,220.00124,0,4-amino-1-[4-hydroxy-5-(hydroxymethyl)tetrahydrofuran-2-yl]pyrimidin-2-one
"InChI=1S/C10H13N5O4/c11-10-13-8-7(9(18)14-10)12-3-15(8)6-1-4(17)5(2-16)19-6/h3-6,16-17H,1-2H2,(H3,11,13,14,18)",YKBGVTZYEHREMT-UHFFFAOYSA-N,O1C(CO)C(O)CC1n1c2NC(=NC(=O)c2nc1)N,C10H11N3O3S,267.245,-1.2050,2,217.63,0,297.29358,1,2-amino-9-[4-hydroxy-5-(hydroxymethyl)tetrahydrofuran-2-yl]-3<I>H</I>-purin-6-one