InChI,Key,smiles,Formula,Weight,logP(o/w),b_rotN,vol,lip_violation,ASA_P,Natural,ChemicalName
"InChI=1S/C26H26N2O6S/c1-26(2)20(24(31)32)28-22(30)19(23(28)35-26)27-21(29)18(15-7-4-3-5-8-15)25(33)34-17-12-11-14-9-6-10-16(14)13-17/h3-5,7-8,11-13,18-20,23H,6,9-10H2,1-2H3,(H,27,29)(H,31,32)",JIRBAUWICKGBFE-UHFFFAOYSA-N,S1C2N(C(C(O)=O)C1(C)C)C(=O)C2NC(=O)C(C(Oc1cc2CCCc2cc1)=O)c1ccccc1,C8H8O3,494.56799,3.5500,8,428.50,0,226.0042,1,"6-[(3-indan-5-yloxy-3-oxo-2-phenyl-propanoyl)amino]-3,3-dimethyl-7-oxo-4-thia-1-azabicyclo[3.2.0]heptane-2-carboxylic acid"
"InChI=1S/C12H24N2O4/c1-5-6-12(4,7-17-10(13)15)8-18-11(16)14-9(2)3/h9H,5-8H2,1-4H3,(H2,13,15)(H,14,16)",OFZCIYFFPZCNJE-UHFFFAOYSA-N,O(CC(CCC)(COC(=O)N)C)C(=O)NC(C)C,C8H9NO2,260.33398,1.8980,10,236.75,0,165.39555,0,[2-(carbamoyloxymethyl)-2-methyl-pentyl] <I>N</I>-isopropylcarbamate
"InChI=1S/C11H16FN3O3/c1-2-3-4-5-6-13-10(17)15-7-8(12)9(16)14-11(15)18/h7H,2-6H2,1H3,(H,13,17)(H,14,16,18)",AOCCBINRVIKJHY-UHFFFAOYSA-N,FC1=CN(C(=O)NCCCCCC)C(=O)NC1=O,C9H10O3,257.26498,1.2410,7,223.38,0,176.31856,1,"5-fluoro-<I>N</I>-hexyl-2,4-dioxo-pyrimidine-1-carboxamide"
"InChI=1S/C5H9Cl2N3O2/c6-1-3-8-5(11)10(9-12)4-2-7/h1-4H2,(H,8,11)",DLGOEMSEDOSKAD-UHFFFAOYSA-N,ClCCN(N=O)C(=O)NCCCl,C9H8O2,214.052,0.8710,7,159.75,0,205.93932,0,"1,3-bis(2-chloroethyl)-1-nitroso-urea"
"InChI=1S/C28H38N4O/c29-27(33)28(31-18-6-1-7-19-31)15-21-30(22-16-28)17-8-20-32-25-11-4-2-9-23(25)13-14-24-10-3-5-12-26(24)32/h2-5,9-12H,1,6-8,13-22H2,(H2,29,33)",NWPJLRSCSQHPJV-UHFFFAOYSA-N,O=C(N)C1(N2CCCCC2)CCN(CC1)CCCN1c2c(CCc3c1cccc3)cccc2,C10H11N3O3S,446.63898,4.4450,6,419.63,0,96.292183,1,"1-[3-(5,6-dihydrobenzo[b][1]benzazepin-11-yl)propyl]-4-(1-piperidyl)piperidine-4-carboxamide"
"InChI=1S/C15H12ClNO2/c1-8(15(18)19)9-2-4-11-12-7-10(16)3-5-13(12)17-14(11)6-9/h2-8,17H,1H3,(H,18,19)",PUXBGTOOZJQSKH-UHFFFAOYSA-N,Clc1cc2c3c([nH]c2cc1)cc(cc3)C(C(O)=O)C,C10H12O3,273.71899,4.3430,2,242.00,0,111.54531,0,2-(6-chloro-9<I>H</I>-carbazol-2-yl)propanoic acid
"InChI=1S/C8H18NO2/c1-9(2,3)7-5-6-8(10)11-4/h5-7H2,1-4H3/q+1",XQSLKIBWQSTAGK-UHFFFAOYSA-N,O(C(=O)CCC[N+](C)(C)C)C,C12H7Cl3O2,160.237,0.1450,5,157.88,0,119.63579,1,(4-methoxy-4-oxo-butyl)-trimethyl-ammonium
"InChI=1S/C16H24N2O3/c1-16(2,3)17-9-11(19)10-21-14-6-4-5-13-12(14)7-8-15(20)18-13/h4-6,11,17,19H,7-10H2,1-3H3,(H,18,20)",LWAFSWPYPHEXKX-UHFFFAOYSA-N,O(CC(O)CNC(C)(C)C)c1c2CCC(=O)Nc2ccc1,C13H10N2O3S,292.379,1.2650,6,271.50,0,122.94934,0,"5-[3-(tert-butylamino)-2-hydroxy-propoxy]-3,4-dihydro-1<I>H</I>-quinolin-2-one"
"InChI=1S/C12H14N6O10S2/c13-11-15-4(3-29-11)7(17-28-2-6(19)20)9(21)16-8-5(1-27-12(14)23)18(10(8)22)30(24,25)26/h3,5,8H,1-2H2,(H2,13,15)(H2,14,23)(H,16,21)(H,19,20)(H,24,25,26)",UIMOJFJSJSIGLV-UHFFFAOYSA-N,s1cc(nc1N)C(=NOCC(O)=O)C(=O)NC1C(N(S(O)(=O)=O)C1=O)COC(=O)N,C13H18O2,466.40799,-3.1230,11,332.00,2,464.04532,1,2-[(E)-[1-(2-aminothiazol-4-yl)-2-[[2-(carbamoyloxymethyl)-4-oxo-1-sulfo-azetidin-3-yl]amino]-2-oxo-ethylidene]amino]oxyacetic acid
"InChI=1S/C24H26N2O4/c1-28-21-10-4-5-11-22(21)29-14-13-25-15-17(27)16-30-23-12-6-9-20-24(23)18-7-2-3-8-19(18)26-20/h2-12,17,25-27H,13-16H2,1H3",OGHNVEJMJSYVRP-UHFFFAOYSA-N,O(CCNCC(O)COc1c2c3c([nH]c2ccc1)cccc3)c1ccccc1OC,C13H9Cl3N2O,406.48199,3.8097,10,391.38,0,124.48138,1,1-(9<I>H</I>-carbazol-4-yloxy)-3-[2-(2-methoxyphenoxy)ethylamino]propan-2-ol
"InChI=1S/C31H38O8/c1-7-18(2)12-14-30(6)19(3)13-15-31-25(28(36-20(4)32)39-29(31)37-21(5)33)16-24(17-26(30)31)38-27(35)22-8-10-23(34)11-9-22/h7-12,16,19,24,26,28-29,34H,1,13-15,17H2,2-6H3",RKOVIXOSRVSKPI-UHFFFAOYSA-N,O1C(OC(=O)C)C23C(CC(OC(=O)c4ccc(O)cc4)C=C2C1OC(=O)C)C(CC=C(C=C)C)(C)C(CC3)C,C14H12O3,538.63696,5.5950,10,470.88,2,203.80374,0,"[1,3-diacetoxy-7,8-dimethyl-7-[(2<I>Z</I>)-3-methylpenta-2,4-dienyl]-1,3,5,6,6<I>a</I>,8,9,10-octahydrobenzo[d]isobenzofuran-5-yl] 4-hydroxybenzoate"
"InChI=1S/C32H40O9/c1-8-18(2)11-13-31(6)19(3)12-14-32-24(29(38-20(4)33)41-30(32)39-21(5)34)16-23(17-27(31)32)40-28(36)22-9-10-25(35)26(15-22)37-7/h8-11,15-16,19,23,27,29-30,35H,1,12-14,17H2,2-7H3",HSCLLTPGIBCIBD-UHFFFAOYSA-N,O1C(OC(=O)C)C23C(CC(OC(=O)c4cc(OC)c(O)cc4)C=C2C1OC(=O)C)C(CC=C(C=C)C)(C)C(CC3)C,C15H12N2O,568.66296,5.5860,11,493.50,2,241.52711,1,"[1,3-diacetoxy-7,8-dimethyl-7-[(2<I>Z</I>)-3-methylpenta-2,4-dienyl]-1,3,5,6,6<I>a</I>,8,9,10-octahydrobenzo[d]isobenzofuran-5-yl] 4-hydroxy-3-methoxy-benzoate"
"InChI=1S/C31H38O9/c1-7-17(2)12-13-30(6)18(3)14-26(39-27(36)21-8-10-22(34)11-9-21)31-24(15-23(35)16-25(30)31)28(37-19(4)32)40-29(31)38-20(5)33/h7-12,15,18,23,25-26,28-29,34-35H,1,13-14,16H2,2-6H3",CIQOXQMVAFIWID-UHFFFAOYSA-N,O1C(OC(=O)C)C23C(CC(O)C=C2C1OC(=O)C)C(CC=C(C=C)C)(C)C(CC3OC(=O)c1ccc(O)cc1)C,C4H4KNO4S,554.63599,4.5800,10,454.38,1,222.0271,0,"[1,3-diacetoxy-5-hydroxy-7,8-dimethyl-7-[(2<I>E</I>)-3-methylpenta-2,4-dienyl]-1,3,5,6,6<I>a</I>,8,9,10-octahydrobenzo[d]isobenzofuran-10-yl] 4-hydroxybenzoate"
"InChI=1S/C31H38O9/c1-7-17(2)12-13-30(6)18(3)14-26(35)31-24(28(37-19(4)32)40-29(31)38-20(5)33)15-23(16-25(30)31)39-27(36)21-8-10-22(34)11-9-21/h7-12,15,18,23,25-26,28-29,34-35H,1,13-14,16H2,2-6H3",BTSDTWZLDJUDMR-UHFFFAOYSA-N,O1C(OC(=O)C)C23C(CC(OC(=O)c4ccc(O)cc4)C=C2C1OC(=O)C)C(CC=C(C=C)C)(C)C(CC3O)C,C7H6O3,554.63599,4.5800,10,477.38,1,238.93205,1,"[1,3-diacetoxy-10-hydroxy-7,8-dimethyl-7-[(2<I>E</I>)-3-methylpenta-2,4-dienyl]-1,3,5,6,6<I>a</I>,8,9,10-octahydrobenzo[d]isobenzofuran-5-yl] 4-hydroxybenzoate"
"InChI=1S/C33H40O10/c1-8-18(2)13-14-32(7)19(3)15-28(42-29(38)23-9-11-24(37)12-10-23)33-26(16-25(17-27(32)33)39-20(4)34)30(40-21(5)35)43-31(33)41-22(6)36/h8-13,16,19,25,27-28,30-31,37H,1,14-15,17H2,2-7H 3",NVVFTAMNEDAOEH-UHFFFAOYSA-N,O1C(OC(=O)C)C23C(CC(OC(=O)C)C=C2C1OC(=O)C)C(CC=C(C=C)C)(C)C(CC3OC(=O)c1ccc(O)cc1)C,C7H8N4O2,596.67297,5.1690,12,497.75,2,248.2887,1,"[1,3,5-triacetoxy-7,8-dimethyl-7-[(2<I>Z</I>)-3-methylpenta-2,4-dienyl]-1,3,5,6,6<I>a</I>,8,9,10-octahydrobenzo[d]isobenzofuran-10-yl] 4-hydroxybenzoate"
"InChI=1S/C14H16N2O5S/c1-21-8-9-3-2-6-16(9)22(19,20)10-4-5-12-11(7-10)13(17)14(18)15-12/h4-5,7,9H,2-3,6,8H2,1H3,(H,15,17,18)",SLQMNVJNDYLJSF-UHFFFAOYSA-N,S(=O)(=O)(N1CCCC1COC)c1cc2c(NC(=O)C2=O)cc1,C8H10N4O2,324.35699,-0.2020,4,263.38,0,217.97055,0,"5-[2-(methoxymethyl)pyrrolidin-1-yl]sulfonylindoline-2,3-dione"
"InChI=1S/C8H15NO4/c10-4-1-2-9-3-5(11)7(12)8(13)6(4)9/h4-8,10-13H,1-3H2",JDVVGAQPNNXQDW-UHFFFAOYSA-N,OC1C(O)C2N(CC1O)CCC2O,C8H14ClN5,189.211,-2.2660,0,148.13,0,191.05537,1,"1,2,3,5,6,7,8,8<I>a</I>-octahydroindolizine-1,6,7,8-tetrol"
"InChI=1S/C23H45N5O14/c24-2-7-13(32)15(34)11(27)21(37-7)41-19-9(4-30)39-23(17(19)36)42-20-10(26)6(31)1-5(25)18(20)40-22-12(28)16(35)14(33)8(3-29)38-22/h5-23,29-36H,1-4,24-28H2",GIIMBCYFMHNRMR-UHFFFAOYSA-N,O1C(CN)C(O)C(O)C(N)C1OC1C(O)C(OC1CO)OC1C(N)C(O)CC(N)C1OC1OC(CO)C(O)C(O)C1N,C8H8O3,615.63397,-9.0183,9,450.13,3,520.69244,0,"5-amino-2-(aminomethyl)-6-[5-[2,5-diamino-6-[3-amino-4,5-dihydroxy-6-(hydroxymethyl)tetrahydropyran-2-yl]oxy-3-hydroxy-cyclohexoxy]-4-hydroxy-2-(hydroxymethyl)tetrahydrofuran-3-yl]oxy-tetrahydropyran- 3,4-diol"
"InChI=1S/C26H32ClN3O6/c1-16(2)21(29-25(34)35-26(3,4)5)23(32)28-20(15-17-9-7-6-8-10-17)22(31)30-36-24(33)18-11-13-19(27)14-12-18/h6-14,16,20-21H,15H2,1-5H3,(H,28,32)(H,29,34)(H,30,31)",GKFXWKCACBHADI-UHFFFAOYSA-N,Clc1ccc(cc1)C(ONC(=O)C(NC(=O)C(NC(OC(C)(C)C)=O)C(C)C)Cc1ccccc1)=O,C8H9NO2,518.01001,5.0970,15,454.63,1,114.95448,1,[[2-[[2-(tert-butoxycarbonylamino)-3-methyl-butanoyl]amino]-3-phenyl-propanoyl]amino] 4-chlorobenzoate
"InChI=1S/C10H8N2O2/c1-11-8-4-9(13)6-2-3-12-5-7(6)10(8)14/h2-5,11H,1H3",PETJKYHAQBWMDY-UHFFFAOYSA-N,O=C1c2c(ccnc2)C(=O)C=C1NC,C9H10O3,188.18599,0.1430,1,177.13,0,143.79243,1,"7-(methylamino)isoquinoline-5,8-dione"
"InChI=1S/C10H7BrN2O2/c1-12-8-7(11)9(14)5-2-3-13-4-6(5)10(8)15/h2-4,12H,1H3",YZQJGPPACTZUKY-UHFFFAOYSA-N,BrC1=C(NC)C(=O)c2c(ccnc2)C1=O,C9H8O2,267.082,1.0200,1,197.00,0,129.30348,0,"6-bromo-7-(methylamino)isoquinoline-5,8-dione"
"InChI=1S/C10H7ClN2O2/c1-12-8-7(11)9(14)5-2-3-13-4-6(5)10(8)15/h2-4,12H,1H3",YIDGULDOJYFHGX-UHFFFAOYSA-N,ClC1=C(NC)C(=O)c2c(ccnc2)C1=O,C10H11ClO3,222.631,0.8140,1,189.00,0,123.60198,1,"6-chloro-7-(methylamino)isoquinoline-5,8-dione"
"InChI=1S/C11H10N2O3/c14-4-3-13-9-5-10(15)7-1-2-12-6-8(7)11(9)16/h1-2,5-6,13-14H,3-4H2",JPUNXFPVVKDHNP-UHFFFAOYSA-N,O=C1c2c(ccnc2)C(=O)C=C1NCCO,C10H11N3O3S,218.21199,-0.5510,3,196.63,0,178.28882,0,"7-(2-hydroxyethylamino)isoquinoline-5,8-dione"
"InChI=1S/C10H9N3O/c1-12-9-4-8(11)6-2-3-13-5-7(6)10(9)14/h2-5H,11H2,1H3/b12-9+",DWAVIPRVWSUPLT-FMIVXFBMSA-N,O=C/1c2c(ccnc2)C(N)=C\C\1=N/C,C10H12O3,187.202,-0.1250,0,179.38,0,163.78827,1,(7<I>E</I>)-5-amino-7-methylimino-isoquinolin-8-one
"InChI=1S/C12H13N3O2/c1-13-11-6-10(15-4-5-16)8-2-3-14-7-9(8)12(11)17/h2-3,6-7,15-16H,4-5H2,1H3/b13-11+",WLSYCPCYTGRLHZ-ACCUITESSA-N,O=C/1c2c(ccnc2)C(NCCO)=C\C\1=N/C,C12H7Cl3O2,231.25499,-0.5000,3,217.25,0,185.90189,1,(7<I>E</I>)-5-(2-hydroxyethylamino)-7-methylimino-isoquinolin-8-one
"InChI=1S/C10H10N2O4/c13-9(11-15)5-4-7-2-1-3-8(6-7)10(14)12-16/h1-6,15-16H,(H,11,13)(H,12,14)",OYKBQNOPCSXWBL-UHFFFAOYSA-N,O=C(NO)c1cc(ccc1)C=CC(=O)NO,C13H10N2O3S,222.2,0.5830,5,192.25,0,255.19971,0,3-[(<I>E</I>)-3-(hydroxyamino)-3-oxo-prop-1-enyl]benzenecarbohydroxamic acid
"InChI=1S/C9H5ClN4/c10-7-2-1-3-8(4-7)13-14-9(5-11)6-12/h1-4,13H",UGTJLJZQQFGTJD-UHFFFAOYSA-N,Clc1cc(NN=C(C#N)C#N)ccc1,C13H18O2,204.62,3.4200,4,187.00,0,183.66388,1,2-[(3-chlorophenyl)hydrazono]propanedinitrile
"InChI=1S/C26H26O3/c1-25(2)11-12-26(3,4)22-15-19(9-10-21(22)25)23(27)18-7-5-17-14-20(24(28)29)8-6-16(17)13-18/h5-10,13-15H,11-12H2,1-4H3,(H,28,29)",RWYREGSYPCNZTL-UHFFFAOYSA-N,OC(=O)c1cc2c(cc(cc2)C(=O)c2cc3c(cc2)C(CCC3(C)C)(C)C)cc1,C14H12O3,386.491,6.9330,3,361.88,1,128.84262,1,"6-(1,1,4,4-tetramethyltetralin-6-carbonyl)naphthalene-2-carboxylic acid"
"InChI=1S/C8H10N2O2/c1-2-3-12-8(11)7-4-9-6-10-5-7/h1,6-7H,3-5H2,(H,9,10)",KEBHGVXTLDRPHQ-UHFFFAOYSA-N,O(C(=O)C1CNC=NC1)CC#C,C15H12N2O,166.17999,-0.4280,4,160.00,0,150.54842,1,"prop-2-ynyl 1,4,5,6-tetrahydropyrimidine-5-carboxylate"
"InChI=1S/C17H11ClN2O/c18-16-12(10-5-1-3-7-14(10)19-16)9-13-11-6-2-4-8-15(11)20-17(13)21/h1-9,19H,(H,20,21)",QJKBRWSJWQVKLY-UHFFFAOYSA-N,Clc1[nH]c2c(cccc2)c1C=C1c2c(NC1=O)cccc2,C4H4KNO4S,294.741,4.4360,1,256.13,0,85.548134,0,(3<I>E</I>)-3-[(2-chloro-1<I>H</I>-indol-3-yl)methylene]indolin-2-one
"InChI=1S/C10H11N5O2S/c11-9-5-10(14-6-13-9)15-7-1-3-8(4-2-7)18(12,16)17/h1-6H,(H2,12,16,17)(H3,11,13,14,15)",FVFVVRPJERUECT-UHFFFAOYSA-N,S(=O)(=O)(N)c1ccc(Nc2ncnc(N)c2)cc1,C7H6O3,265.297,-0.4850,3,214.00,0,304.07785,1,4-[(6-aminopyrimidin-4-yl)amino]benzenesulfonamide
"InChI=1S/C15H14ClN3O4S/c16-8-6-24-14-10(13(21)19(14)11(8)15(22)23)18-12(20)9(17)7-4-2-1-3-5-7/h1-5,9-10,14H,6,17H2,(H,18,20)(H,22,23)",QYIYFLOTGYLRGG-UHFFFAOYSA-N,ClC=1CSC2N(C(=O)C2NC(=O)C(N)c2ccccc2)C=1C(O)=O,C7H8N4O2,367.81299,0.8400,5,292.63,0,231.93811,0,7-[(2-amino-2-phenyl-acetyl)amino]-3-chloro-8-oxo-5-thia-1-azabicyclo[4.2.0]oct-2-ene-2-carboxylic acid
"InChI=1S/C16H17N3O5S/c1-7-6-25-15-11(14(22)19(15)12(7)16(23)24)18-13(21)10(17)8-2-4-9(20)5-3-8/h2-5,10-11,15,20H,6,17H2,1H3,(H,18,21)(H,23,24)",BOEGTKLJZSQCCD-UHFFFAOYSA-N,S1C2N(C(=O)C2NC(=O)C(N)c2ccc(O)cc2)C(C(O)=O)=C(C1)C,C8H10N4O2,363.39398,-0.0300,5,300.88,0,307.88577,1,7-[[2-amino-2-(4-hydroxyphenyl)acetyl]amino]-3-methyl-8-oxo-5-thia-1-azabicyclo[4.2.0]oct-2-ene-2-carboxylic acid
"InChI=1S/C19H17N3O4S2/c23-14(9-13-5-4-8-27-13)20-15-17(24)22-16(19(25)26)12(11-28-18(15)22)10-21-6-2-1-3-7-21/h1-8,15,18H,9-11H2,(H-,20,23,25,26)/p+1",CZTQZXZIADLWOZ-UHFFFAOYSA-O,s1cccc1CC(=O)NC1C2SCC(C[n+]3ccccc3)=C(N2C1=O)C(O)=O,C8H14ClN5,416.50198,1.8340,7,351.88,0,233.06161,1,8-oxo-3-(pyridin-1-ium-1-ylmethyl)-7-[[2-(2-thienyl)acetyl]amino]-5-thia-1-azabicyclo[4.2.0]oct-2-ene-2-carboxylic acid
"InChI=1S/C16H16N2O6S2/c1-8(19)24-6-9-7-26-15-12(14(21)18(15)13(9)16(22)23)17-11(20)5-10-3-2-4-25-10/h2-4,12,15H,5-7H2,1H3,(H,17,20)(H,22,23)",XIURVHNZVLADCM-UHFFFAOYSA-N,s1cccc1CC(=O)NC1C2SCC(COC(=O)C)=C(N2C1=O)C(O)=O,C8H8O3,396.444,0.4600,8,318.63,0,261.05701,0,3-(acetoxymethyl)-8-oxo-7-[[2-(2-thienyl)acetyl]amino]-5-thia-1-azabicyclo[4.2.0]oct-2-ene-2-carboxylic acid
"InChI=1S/C18H18N6O5S2/c1-23-18(20-21-22-23)31-8-10-7-30-16-11(15(27)24(16)12(10)17(28)29)19-14(26)13(25)9-5-3-2-4-6-9/h2-6,11,13,16,25H,7-8H2,1H3,(H,19,26)(H,28,29)/p-1",OLVCFLKTBJRLHI-UHFFFAOYSA-M,S1C2N(C(=O)C2NC(=O)C(O)c2ccccc2)C(C(=O)[O-])=C(C1)CSc1nnnn1C,C8H9NO2,461.50299,-0.1770,8,372.63,1,309.77011,1,7-[(2-hydroxy-2-phenyl-acetyl)amino]-3-[(1-methyltetrazol-5-yl)sulfanylmethyl]-8-oxo-5-thia-1-azabicyclo[4.2.0]oct-2-ene-2-carboxylate
"InChI=1S/C18H18N6O5S2/c1-23-18(20-21-22-23)31-8-10-7-30-16-11(15(27)24(16)12(10)17(28)29)19-14(26)13(25)9-5-3-2-4-6-9/h2-6,11,13,16,25H,7-8H2,1H3,(H,19,26)(H,28,29)",OLVCFLKTBJRLHI-UHFFFAOYSA-N,S1C2N(C(=O)C2NC(=O)C(O)c2ccccc2)C(C(O)=O)=C(C1)CSc1nnnn1C,C9H10O3,462.51099,-0.2980,8,372.63,1,329.09839,0,7-[(2-hydroxy-2-phenyl-acetyl)amino]-3-[(1-methyltetrazol-5-yl)sulfanylmethyl]-8-oxo-5-thia-1-azabicyclo[4.2.0]oct-2-ene-2-carboxylic acid
"InChI=1S/C19H18N6O6S2/c1-24-19(21-22-23-24)33-8-11-7-32-17-12(16(28)25(17)13(11)18(29)30)20-15(27)14(31-9-26)10-5-3-2-4-6-10/h2-6,9,12,14,17H,7-8H2,1H3,(H,20,27)(H,29,30)",RRJHESVQVSRQEX-UHFFFAOYSA-N,S1C2N(C(=O)C2NC(=O)C(OC=O)c2ccccc2)C(C(O)=O)=C(C1)CSc1nnnn1C,C9H8O2,490.521,0.2680,10,392.38,1,360.11212,1,7-[(2-formyloxy-2-phenyl-acetyl)amino]-3-[(1-methyltetrazol-5-yl)sulfanylmethyl]-8-oxo-5-thia-1-azabicyclo[4.2.0]oct-2-ene-2-carboxylic acid
"InChI=1S/C17H17N3O6S2/c1-9(21)26-6-10-7-28-16-13(15(23)20(16)14(10)17(24)25)19-12(22)8-27-11-2-4-18-5-3-11/h2-5,13,16H,6-8H2,1H3,(H,19,22)(H,24,25)",UQLLWWBDSUHNEB-UHFFFAOYSA-N,S1C2N(C(=O)C2NC(=O)CSc2ccncc2)C(C(O)=O)=C(C1)COC(=O)C,C10H11ClO3,423.47,0.0300,9,343.50,0,338.70316,1,3-(acetoxymethyl)-8-oxo-7-[[2-(4-pyridylsulfanyl)acetyl]amino]-5-thia-1-azabicyclo[4.2.0]oct-2-ene-2-carboxylic acid
"InChI=1S/C14H14N8O4S3/c1-6-17-18-14(29-6)28-4-7-3-27-12-9(11(24)22(12)10(7)13(25)26)16-8(23)2-21-5-15-19-20-21/h5,9,12H,2-4H2,1H3,(H,16,23)(H,25,26)/p-1",MLYYVTUWGNIJIB-UHFFFAOYSA-M,s1c(nnc1SCC=1CSC2N(C(=O)C2NC(=O)Cn2nnnc2)C=1C(=O)[O-])C,C10H11N3O3S,453.508,-0.7330,8,342.38,1,355.7774,0,"3-[(5-methyl-1,3,4-thiadiazol-2-yl)sulfanylmethyl]-8-oxo-7-[[2-(tetrazol-1-yl)acetyl]amino]-5-thia-1-azabicyclo[4.2.0]oct-2-ene-2-carboxylate"
"InChI=1S/C14H14N8O4S3/c1-6-17-18-14(29-6)28-4-7-3-27-12-9(11(24)22(12)10(7)13(25)26)16-8(23)2-21-5-15-19-20-21/h5,9,12H,2-4H2,1H3,(H,16,23)(H,25,26)",MLYYVTUWGNIJIB-UHFFFAOYSA-N,s1c(nnc1SCC=1CSC2N(C(=O)C2NC(=O)Cn2nnnc2)C=1C(O)=O)C,C10H12O3,454.51599,-0.8540,8,342.38,1,343.42719,1,"3-[(5-methyl-1,3,4-thiadiazol-2-yl)sulfanylmethyl]-8-oxo-7-[[2-(tetrazol-1-yl)acetyl]amino]-5-thia-1-azabicyclo[4.2.0]oct-2-ene-2-carboxylic acid"
"InChI=1S/C22H29N9O9S2/c1-5-29-6-7-30(16(35)15(29)34)20(39)23-12(10(2)32)14(33)24-22(40-4)18(38)31-13(17(36)37)11(8-41-19(22)31)9-42-21-25-26-27-28(21)3/h10,12,19,32H,5-9H2,1-4H3,(H,23,39)(H,24,33)(H,3 6,37)",SMSRCGPDNDCXFR-UHFFFAOYSA-N,S1C2N(C(=O)C2(OC)NC(=O)C(NC(=O)N2CCN(CC)C(=O)C2=O)C(O)C)C(C(O)=O)=C(C1)CSc1nnnn1C,C12H7Cl3O2,627.65997,-2.7680,13,482.13,2,423.92218,0,"7-[[2-[(4-ethyl-2,3-dioxo-piperazine-1-carbonyl)amino]-3-hydroxy-butanoyl]amino]-7-methoxy-3-[(1-methyltetrazol-5-yl)sulfanylmethyl]-8-oxo-5-thia-1-azabicyclo[4.2.0]oct-2-ene-2-carboxylic acid"
"InChI=1S/C25H28N6O8S2/c1-12-15(41-11-27-12)7-6-13-10-40-22-18(29-19(33)17(30-36-5)14-8-38-24(26)28-14)20(34)31(22)21(13)39-16(32)9-37-23(35)25(2,3)4/h6-8,11,18,22H,9-10H2,1-5H3,(H2,26,28)(H,29,33)",JQGVFIPVXNNLPV-UHFFFAOYSA-N,s1cnc(C)c1C=CC=1CSC2N(C(=O)C2NC(=O)C(=NOC)c2nc(oc2)N)C=1OC(=O)COC(=O)C(C)(C)C,C13H10N2O3S,604.66498,0.9757,13,502.00,2,350.74548,1,"[2-[[7-[[(2<I>E</I>)-2-(2-aminooxazol-4-yl)-2-methoxyimino-acetyl]amino]-3-[(<I>E</I>)-2-(4-methylthiazol-5-yl)vinyl]-8-oxo-5-thia-1-azabicyclo[4.2.0]oct-2-en-2-yl]oxy]-2-oxo-ethyl] 2,2-dimethylpropan oate"
"InChI=1S/C19H24N6O5S2/c1-25(5-3-4-6-25)7-10-8-31-17-13(16(27)24(17)14(10)18(28)29)22-15(26)12(23-30-2)11-9-32-19(20)21-11/h9,13,17H,3-8H2,1-2H3,(H3-,20,21,22,26,28,29)",HVFLCNVBZFFHBT-UHFFFAOYSA-N,s1cc(nc1N)C(=NOC)C(=O)NC1C2SCC(C[N+]3(CCCC3)C)=C(N2C1=O)C(=O)[O-],C13H18O2,480.57001,-0.3310,8,380.50,1,354.96472,1,7-[[(2<I>E</I>)-2-(2-aminothiazol-4-yl)-2-methoxyimino-acetyl]amino]-3-[(1-methylpyrrolidin-1-ium-1-yl)methyl]-8-oxo-5-thia-1-azabicyclo[4.2.0]oct-2-ene-2-carboxylate
"InChI=1S/C19H24N6O5S2/c1-25(5-3-4-6-25)7-10-8-31-17-13(16(27)24(17)14(10)18(28)29)22-15(26)12(23-30-2)11-9-32-19(20)21-11/h9,13,17H,3-8H2,1-2H3,(H3-,20,21,22,26,28,29)/p+1",HVFLCNVBZFFHBT-UHFFFAOYSA-O,s1cc(nc1N)C(=NOC)C(=O)NC1C2SCC(C[N+]3(CCCC3)C)=C(N2C1=O)C(O)=O,C13H9Cl3N2O,481.578,-0.4520,8,380.50,1,347.53937,0,7-[[(2<I>E</I>)-2-(2-aminothiazol-4-yl)-2-methoxyimino-acetyl]amino]-3-[(1-methylpyrrolidin-1-ium-1-yl)methyl]-8-oxo-5-thia-1-azabicyclo[4.2.0]oct-2-ene-2-carboxylic acid
"InChI=1S/C16H17N9O5S3/c1-24-16(20-22-23-24)33-4-6-3-31-13-9(12(27)25(13)10(6)14(28)29)19-11(26)8(21-30-2)7-5-32-15(17)18-7/h5,9,13H,3-4H2,1-2H3,(H2,17,18)(H,19,26)(H,28,29)",HJJDBAOLQAWBMH-UHFFFAOYSA-N,s1cc(nc1N)C(=NOC)C(=O)NC1C2SCC(CSc3nnnn3C)=C(N2C1=O)C(O)=O,C14H12O3,511.56799,-1.2120,9,389.38,2,427.74857,1,7-[[(2<I>E</I>)-2-(2-aminothiazol-4-yl)-2-methoxyimino-acetyl]amino]-3-[(1-methyltetrazol-5-yl)sulfanylmethyl]-8-oxo-5-thia-1-azabicyclo[4.2.0]oct-2-ene-2-carboxylic acid
"InChI=1S/C15H17N7O5S3/c1-21-14(18-19-20-21)30-6-8-5-29-13-15(27-2,17-9(23)7-28-4-3-16)12(26)22(13)10(8)11(24)25/h13H,4-7H2,1-2H3,(H,17,23)(H,24,25)/p-1",SNBUBQHDYVFSQF-UHFFFAOYSA-M,S1C2N(C(=O)C2(OC)NC(=O)CSCC#N)C(C(=O)[O-])=C(C1)CSc1nnnn1C,C15H12N2O,470.535,-0.7520,11,356.13,1,405.1666,0,7-[[2-(cyanomethylsulfanyl)acetyl]amino]-7-methoxy-3-[(1-methyltetrazol-5-yl)sulfanylmethyl]-8-oxo-5-thia-1-azabicyclo[4.2.0]oct-2-ene-2-carboxylate
"InChI=1S/C15H17N7O5S3/c1-21-14(18-19-20-21)30-6-8-5-29-13-15(27-2,17-9(23)7-28-4-3-16)12(26)22(13)10(8)11(24)25/h13H,4-7H2,1-2H3,(H,17,23)(H,24,25)",SNBUBQHDYVFSQF-UHFFFAOYSA-N,S1C2N(C(=O)C2(OC)NC(=O)CSCC#N)C(C(O)=O)=C(C1)CSc1nnnn1C,C4H4KNO4S,471.543,-0.8730,11,356.13,1,452.99124,1,7-[[2-(cyanomethylsulfanyl)acetyl]amino]-7-methoxy-3-[(1-methyltetrazol-5-yl)sulfanylmethyl]-8-oxo-5-thia-1-azabicyclo[4.2.0]oct-2-ene-2-carboxylic acid
"InChI=1S/C16H21N7O7S3/c1-22-15(19-20-21-22)33-4-7-3-32-14-16(30-2,13(29)23(14)10(7)12(27)28)18-9(24)6-31-5-8(17)11(25)26/h8,14H,3-6,17H2,1-2H3,(H,18,24)(H,25,26)(H,27,28)",JSDXOWVAHXDYCU-UHFFFAOYSA-N,S1C2N(C(=O)C2(OC)NC(=O)CSCC(N)C(O)=O)C(C(O)=O)=C(C1)CSc1nnnn1C,C7H6O3,519.58398,-4.0497,12,383.13,2,482.14737,1,7-[[2-(2-amino-2-carboxy-ethyl)sulfanylacetyl]amino]-7-methoxy-3-[(1-methyltetrazol-5-yl)sulfanylmethyl]-8-oxo-5-thia-1-azabicyclo[4.2.0]oct-2-ene-2-carboxylic acid
"InChI=1S/C20H20N6O7S4/c1-7-10(3-11(27)28)37-20(22-7)36-5-8-4-34-17-13(16(30)26(17)14(8)18(31)32)24-15(29)12(25-33-2)9-6-35-19(21)23-9/h6,13,17H,3-5H2,1-2H3,(H2,21,23)(H,24,29)(H,27,28)(H,31,32)",XDZKBRJLTGRPSS-UHFFFAOYSA-N,s1c(CC(O)=O)c(nc1SCC=1CSC2N(C(=O)C2NC(=O)C(=NOC)c2nc(sc2)N)C=1C(O)=O)C,C7H8N4O2,584.67902,0.5500,11,443.13,2,460.01505,0,7-[[(2<I>E</I>)-2-(2-aminothiazol-4-yl)-2-methoxyimino-acetyl]amino]-3-[[5-(carboxymethyl)-4-methyl-thiazol-2-yl]sulfanylmethyl]-8-oxo-5-thia-1-azabicyclo[4.2.0]oct-2-ene-2-carboxylic acid
"InChI=1S/C25H27N9O8S2/c1-3-32-8-9-33(21(39)20(32)38)24(42)27-15(12-4-6-14(35)7-5-12)18(36)26-16-19(37)34-17(23(40)41)13(10-43-22(16)34)11-44-25-28-29-30-31(25)2/h4-7,15-16,22,35H,3,8-11H2,1-2H3,(H,26, 36)(H,27,42)(H,40,41)/p-1",GCFBRXLSHGKWDP-UHFFFAOYSA-M,S1C2N(C(=O)C2NC(=O)C(NC(=O)N2CCN(CC)C(=O)C2=O)c2ccc(O)cc2)C(C(=O)[O-])=C(C1)CSc1nnnn1C,C8H10N4O2,644.66998,-1.5330,12,513.50,2,445.77438,1,"7-[[2-[(4-ethyl-2,3-dioxo-piperazine-1-carbonyl)amino]-2-(4-hydroxyphenyl)acetyl]amino]-3-[(1-methyltetrazol-5-yl)sulfanylmethyl]-8-oxo-5-thia-1-azabicyclo[4.2.0]oct-2-ene-2-carboxylate"