InChI,Key,smiles,Formula,Weight,logP(o/w),b_rotN,vol,lip_violation,ASA_P,Natural,ChemicalName
"InChI=1S/C31H41FN4O7/c1-5-42-27(38)11-10-24(16-21-12-13-33-29(21)39)34-30(40)22(15-20-6-8-23(32)9-7-20)17-26(37)28(18(2)3)35-31(41)25-14-19(4)43-36-25/h6-9,14,18,21-22,24,28H,5,10-13,15-17H2,1-4H3,(H, 33,39)(H,34,40)(H,35,41)",LMIUALQNZXJHOG-UHFFFAOYSA-N,Fc1ccc(cc1)CC(CC(=O)C(NC(=O)c1noc(c1)C)C(C)C)C(=O)NC(CC1CCNC1=O)CCC(OCC)=O,C13H9Cl3N2O,600.68799,2.2520,19,533.00,2,212.97539,1,ethyl 4-[[2-[(4-fluorophenyl)methyl]-6-methyl-5-[(5-methylisoxazole-3-carbonyl)amino]-4-oxo-heptanoyl]amino]-5-(2-oxopyrrolidin-3-yl)pentanoate
"InChI=1S/C10H6N2O3/c11-4-7(5-12)1-6-2-8(13)10(15)9(14)3-6/h1-3,13-15H",YZOFLYUAQDJWKV-UHFFFAOYSA-N,Oc1c(O)cc(cc1O)C=C(C#N)C#N,C14H12O3,202.16899,0.7620,3,183.75,0,274.30038,0,"2-[(3,4,5-trihydroxyphenyl)methylene]propanedinitrile"
"InChI=1S/C19H15N3O3S2/c1-25-15-8-11(6-12(9-20)18(21)24)7-13(17(15)23)10-26-19-22-14-4-2-3-5-16(14)27-19/h2-8,23H,10H2,1H3,(H2,21,24)",KXDONFLNGBQLTN-UHFFFAOYSA-N,s1c2c(nc1SCc1cc(cc(OC)c1O)C=C(C(=O)N)C#N)cccc2,C15H12N2O,397.479,3.6240,7,344.75,0,287.25174,1,"(<I>E</I>)-3-[3-(1,3-benzothiazol-2-ylsulfanylmethyl)-4-hydroxy-5-methoxy-phenyl]-2-cyano-prop-2-enamide"
"InChI=1S/C11H8N2O/c1-14-11-4-2-9(3-5-11)6-10(7-12)8-13/h2-6H,1H3",UOHFCPXBKJPCAD-UHFFFAOYSA-N,O(C)c1ccc(cc1)C=C(C#N)C#N,C4H4KNO4S,184.198,1.5720,4,191.00,0,182.46983,1,2-[(4-methoxyphenyl)methylene]propanedinitrile
"InChI=1S/C15H15NO4/c1-20-15(19)10-2-4-12(5-3-10)16-9-11-8-13(17)6-7-14(11)18/h2-8,16-18H,9H2,1H3",QSFREBZMBNRGOK-UHFFFAOYSA-N,Oc1ccc(O)cc1CNc1ccc(cc1)C(OC)=O,C7H6O3,273.28799,2.7010,5,255.25,0,176.08035,0,"methyl 4-[(2,5-dihydroxyphenyl)methylamino]benzoate"
"InChI=1S/C10H8N2O3/c11-5-7(10(12)15)3-6-1-2-8(13)9(14)4-6/h1-4,13-14H,(H2,12,15)",USOXQZNJFMKTKJ-UHFFFAOYSA-N,Oc1cc(ccc1O)C=C(C(=O)N)C#N,C7H8N4O2,204.185,0.3180,3,181.63,0,252.00427,1,"(<I>E</I>)-2-cyano-3-(3,4-dihydroxyphenyl)prop-2-enamide"
"InChI=1S/C15H25NO3S/c1-11(2)6-5-7-12(3)8-9-20-10-14(15(18)19)16-13(4)17/h6,8,14H,5,7,9-10H2,1-4H3,(H,16,17)(H,18,19)",YWGFJCHHZZUWCO-UHFFFAOYSA-N,S(CC(NC(=O)C)C(O)=O)CC=C(CCC=C(C)C)C,C8H10N4O2,299.435,1.4010,10,277.63,0,172.34349,0,"2-acetamido-3-[(2<I>E</I>)-3,7-dimethylocta-2,6-dienyl]sulfanyl-propanoic acid"
"InChI=1S/C25H41NO3S/c1-19(2)10-7-11-20(3)12-8-13-21(4)14-9-15-22(5)16-17-30-18-24(25(28)29)26-23(6)27/h10,12,14,16,24H,7-9,11,13,15,17-18H2,1-6H3,(H,26,27)(H,28,29)",PKFBJSDMCRJYDC-UHFFFAOYSA-N,S(CC(NC(=O)C)C(O)=O)CC=C(CCC=C(CCC=C(CCC=C(C)C)C)C)C,C8H14ClN5,435.673,3.1290,16,434.50,1,217.25648,1,"2-acetamido-3-[(2<I>Z</I>,6<I>E</I>,10<I>E</I>)-3,7,11,15-tetramethylhexadeca-2,6,10,14-tetraenyl]sulfanyl-propanoic acid"
"InChI=1S/C10H19N/c1-6(2)9-7-3-4-8(5-7)10(9)11/h6-10H,3-5,11H2,1-2H3",SHXVJSFOJHMEEQ-UHFFFAOYSA-N,NC1C2CC(CC2)C1C(C)C,C8H8O3,153.269,2.2910,1,144.38,0,47.450188,1,3-isopropylnorbornan-2-amine
"InChI=1S/C33H34N2O5/c36-31-29(23-39-27-17-9-3-10-18-27)34(21-25-13-5-1-6-14-25)33(38)35(22-26-15-7-2-8-16-26)30(32(31)37)24-40-28-19-11-4-12-20-28/h1-20,29-32,36-37H,21-24H2",SQBOSZXDOHQFAA-UHFFFAOYSA-N,O(CC1N(Cc2ccccc2)C(=O)N(Cc2ccccc2)C(COc2ccccc2)C(O)C1O)c1ccccc1,C8H9NO2,538.64398,5.0450,10,498.25,2,72.259148,0,"1,3-dibenzyl-5,6-dihydroxy-4,7-bis(phenoxymethyl)-1,3-diazepan-2-one"
"InChI=1S/C35H40N2O9S/c1-44-35(41)28-18-16-26(17-19-28)21-37-32(24-46-30-10-6-3-7-11-30)34(40)33(39)31(23-45-29-8-4-2-5-9-29)36(47(37,42)43)20-25-12-14-27(22-38)15-13-25/h2-19,31-35,38-41H,20-24H2,1H3",XLJNZONSWKENRP-UHFFFAOYSA-N,S1(=O)(=O)N(Cc2ccc(cc2)C(OC)O)C(COc2ccccc2)C(O)C(O)C(N1Cc1ccc(cc1)CO)COc1ccccc1,C9H10O3,664.776,3.0820,13,546.00,2,213.47749,1,"2-[[4-[hydroxy(methoxy)methyl]phenyl]methyl]-7-[[4-(hydroxymethyl)phenyl]methyl]-1,1-dioxo-3,6-bis(phenoxymethyl)-1,2,7-thiadiazepane-4,5-diol"
"InChI=1S/C11H11NO4/c12-11(10(15)16)4-3-6-5-7(9(13)14)1-2-8(6)11/h1-2,5H,3-4,12H2,(H,13,14)(H,15,16)",LSTPKMWNRWCNLS-UHFFFAOYSA-N,OC(=O)C1(N)CCc2c1ccc(c2)C(O)=O,C9H8O2,221.21199,-1.4827,2,181.63,0,226.92993,0,"1-aminoindane-1,5-dicarboxylic acid"
"InChI=1S/C9H8N2O/c10-8-3-1-2-7-6(8)4-5-11-9(7)12/h1-5H,10H2,(H,11,12)",SVASVGVAQIVSEZ-UHFFFAOYSA-N,O=C1NC=Cc2c1cccc2N,C10H11ClO3,160.17599,0.5730,0,151.88,0,131.35579,1,5-amino-2<I>H</I>-isoquinolin-1-one
"InChI=1S/C30H35NO10/c1-6-30(38)12-19(41-20-11-17(31(3)4)25(33)13(2)40-20)22-15(24(30)29(37)39-5)10-16-23(28(22)36)27(35)21-14(26(16)34)8-7-9-18(21)32/h7-10,13,17,19-20,24-25,32-33,36,38H,6,11-12H2,1-5 H3",LJZPVWKMAYDYAS-UHFFFAOYSA-N,O1C(C)C(O)C(N(C)C)CC1OC1CC(O)(CC)C(c2c1c(O)c1c(c2)C(=O)c2c(C1=O)c(O)ccc2)C(OC)=O,C10H12O3,569.60699,3.1050,6,483.63,2,273.94601,0,"methyl 4-[4-(dimethylamino)-5-hydroxy-6-methyl-tetrahydropyran-2-yl]oxy-2-ethyl-2,5,7-trihydroxy-6,11-dioxo-3,4-dihydro-1<I>H</I>-tetracene-1-carboxylate"
"InChI=1S/C7H5ClN2O3/c8-6-3-4(10(12)13)1-2-5(6)7(9)11/h1-3H,(H2,9,11)",GFGSZUNNBQXGMK-UHFFFAOYSA-N,Clc1cc([N+](=O)[O-])ccc1C(=O)N,C12H7Cl3O2,200.58099,1.4110,2,158.75,0,179.10977,1,2-chloro-4-nitro-benzamide
"InChI=1S/C30H58O10/c1-3-4-5-6-7-8-9-10-11-12-13-14-15-16-17-18-19-38-21-23(37-2)22-39-30(36)40-29-26(33)24(20-31)25(32)27(34)28(29)35/h23-29,31-35H,3-22H2,1-2H3",ARSOCJAZLCXHOY-UHFFFAOYSA-N,O(C(OCC(OC)COCCCCCCCCCCCCCCCCCC)=O)C1C(O)C(CO)C(O)C(O)C1O,C13H10N2O3S,578.784,4.5865,26,526.75,1,235.85568,0,"(2-methoxy-3-octadecoxy-propyl) [2,3,4,6-tetrahydroxy-5-(hydroxymethyl)cyclohexyl] carbonate"
"InChI=1S/C20H26N2O5S/c1-13(12-28-14(2)23)19(25)22-10-6-9-17(22)18(24)21-16(20(26)27)11-15-7-4-3-5-8-15/h3-5,7-8,13,16-17H,6,9-12H2,1-2H3,(H,21,24)(H,26,27)",FHHHOYXPRDYHEZ-UHFFFAOYSA-N,S(C(=O)C)CC(C(=O)N1CCCC1C(=O)NC(Cc1ccccc1)C(O)=O)C,C13H18O2,406.50299,1.8850,11,353.00,0,169.4026,1,2-[[1-(3-acetylsulfanyl-2-methyl-propanoyl)pyrrolidine-2-carbonyl]amino]-3-phenyl-propanoic acid
"InChI=1S/C14H20ClNO2/c1-4-11-7-6-8-12(5-2)14(11)16(10-18-3)13(17)9-15/h6-8H,4-5,9-10H2,1-3H3",XCSGPAVHZFQHGE-UHFFFAOYSA-N,ClCC(=O)N(COC)c1c(cccc1CC)CC,C13H9Cl3N2O,269.772,3.3920,7,249.25,0,126.96908,1,"2-chloro-<I>N</I>-(2,6-diethylphenyl)-<I>N</I>-(methoxymethyl)acetamide"
"InChI=1S/C9H18N2O3/c1-6(2)5-7(9(13)14)11-8(12)3-4-10/h6-7H,3-5,10H2,1-2H3,(H,11,12)(H,13,14)",YVFFCSSMTOXAQS-UHFFFAOYSA-N,OC(=O)C(NC(=O)CCN)CC(C)C,C14H12O3,202.254,-0.0300,7,176.50,0,191.08827,0,2-(3-aminopropanoylamino)-4-methyl-pentanoic acid
"InChI=1S/C12H16N2O3/c1-8(13)11(15)14-10(12(16)17)7-9-5-3-2-4-6-9/h2-6,8,10H,7,13H2,1H3,(H,14,15)(H,16,17)",OMNVYXHOSHNURL-UHFFFAOYSA-N,OC(=O)C(NC(=O)C(N)C)Cc1ccccc1,C15H12N2O,236.271,0.4650,6,215.00,0,163.98816,1,2-(2-aminopropanoylamino)-3-phenyl-propanoic acid
"InChI=1S/C13H18ClNO2/c1-9(15)12(16)17-13(2,3)8-10-4-6-11(14)7-5-10/h4-7,9H,8,15H2,1-3H3",FZSPJBYOKQPKCD-UHFFFAOYSA-N,Clc1ccc(cc1)CC(OC(=O)C(N)C)(C)C,C4H4KNO4S,255.745,2.9420,5,222.25,0,91.057434,0,"[2-(4-chlorophenyl)-1,1-dimethyl-ethyl] 2-aminopropanoate"
"InChI=1S/C12H15N3O2S/c1-3-6-18-8-4-5-9-10(7-8)14-11(13-9)15-12(16)17-2/h4-5,7H,3,6H2,1-2H3,(H2,13,14,15,16)",HXHWSAZORRCQMX-UHFFFAOYSA-N,S(CCC)c1cc2nc([nH]c2cc1)NC(OC)=O,C7H6O3,265.33701,2.6510,6,238.25,0,201.91377,1,methyl <I>N</I>-(5-propylsulfanyl-1<I>H</I>-benzimidazol-2-yl)carbamate
"InChI=1S/C13H21NO3/c1-13(2,3)14-7-12(17)9-4-5-11(16)10(6-9)8-15/h4-6,12,14-17H,7-8H2,1-3H3",NDAUXUAQIAJITI-UHFFFAOYSA-N,Oc1ccc(cc1CO)C(O)CNC(C)(C)C,C7H8N4O2,239.31499,1.5290,5,218.50,0,136.94557,1,4-[2-(tert-butylamino)-1-hydroxy-ethyl]-2-(hydroxymethyl)phenol
"InChI=1S/C11H13ClO3/c1-2-5-15-10-4-3-8(6-9(10)12)7-11(13)14/h3-4,6H,2,5,7H2,1H3,(H,13,14)",QEJHPAGTOOIBFT-UHFFFAOYSA-N,Clc1cc(ccc1OCCC)CC(O)=O,C8H10N4O2,228.67499,3.2090,5,202.00,0,107.92972,0,2-(3-chloro-4-propoxy-phenyl)acetic acid
"InChI=1S/C28H37ClO7/c1-6-22(33)35-14-21(32)28(36-23(34)7-2)15(3)10-18-24-19(29)12-16-11-17(30)8-9-26(16,4)25(24)20(31)13-27(18,28)5/h8-9,11,15,18-20,24-25,31H,6-7,10,12-14H2,1-5H3",DJHCCTTVDRAMEH-UHFFFAOYSA-N,ClC1C2C(C3(C(C1)=CC(=O)C=C3)C)C(O)CC1(C2CC(C)C1(OC(=O)CC)C(=O)COC(=O)CC)C,C8H14ClN5,521.04999,4.4970,8,407.50,1,168.50218,1,"[2-(7-chloro-11-hydroxy-10,13,16-trimethyl-3-oxo-17-propanoyloxy-7,8,9,11,12,14,15,16-octahydro-6<I>H</I>-cyclopenta[a]phenanthren-17-yl)-2-oxo-ethyl] propanoate"
"InChI=1S/C7H14N2O2S/c1-7(2,12-4)5-9-11-6(10)8-3/h5H,1-4H3,(H,8,10)",QGLZXHRNAYXIBU-UHFFFAOYSA-N,S(C(\C=N\OC(=O)NC)(C)C)C,C8H8O3,190.267,2.1220,5,161.00,0,174.73109,0,[(E)-(2-methyl-2-methylsulfanyl-propylidene)amino] <I>N</I>-methylcarbamate
"InChI=1S/C4H13NO7P2/c5-3-1-2-4(6,13(7,8)9)14(10,11)12/h6H,1-3,5H2,(H2,7,8,9)(H2,10,11,12)",OGSPWJRAVKPPFI-UHFFFAOYSA-N,P(O)(O)(=O)C(P(O)(O)=O)(O)CCCN,C9H10O3,249.09599,-3.4250,5,135.25,1,315.92496,1,(4-amino-1-hydroxy-1-phosphono-butyl)phosphonic acid
"InChI=1S/C26H56N10/c1-5-9-15-21(7-3)19-33-25(29)35-23(27)31-17-13-11-12-14-18-32-24(28)36-26(30)34-20-22(8-4)16-10-6-2/h21-22H,5-20H2,1-4H3,(H5,27,29,31,33,35)(H5,28,30,32,34,36)",LFVVNPBBFUSSHL-UHFFFAOYSA-N,N(CC(CCCC)CC)C(NC(NCCCCCCNC(NC(NCC(CCCC)CC)=N)=N)=N)=N,C10H11ClO3,508.80399,7.7120,27,500.75,2,276.39041,1,1-(2-ethylhexyl)-3-[<I>N</I>-[6-[[<I>N</I>-[<I>N</I>-(2-ethylhexyl)carbamimidoyl]carbamimidoyl]amino]hexyl]carbamimidoyl]guanidine
"InChI=1S/C27H44O2/c1-18(2)8-6-9-19(3)24-13-14-25-21(10-7-15-27(24,25)5)11-12-22-16-23(28)17-26(29)20(22)4/h11-12,18-19,23-26,28-29H,4,6-10,13-17H2,1-3,5H3",OFHCOWSQAMBJIW-UHFFFAOYSA-N,OC1CC(O)CC(=CC=C2C3CCC(C(CCCC(C)C)C)C3(CCC2)C)C1=C,C10H11N3O3S,400.647,6.5350,6,389.00,1,114.89909,0,"(5<I>E</I>)-5-[(2<I>E</I>)-2-[1-(1,5-dimethylhexyl)-7<I>a</I>-methyl-2,3,3<I>a</I>,5,6,7-hexahydro-1<I>H</I>-inden-4-ylidene]ethylidene]-4-methylene-cyclohexane-1,3-diol"
"InChI=1S/C19H27N5O4/c1-24(8-5-7-21-18(25)14-6-4-9-28-14)19-22-13-11-16(27-3)15(26-2)10-12(13)17(20)23-19/h10-11,14H,4-9H2,1-3H3,(H,21,25)(H2,20,22,23)",WNMJYKCGWZFFKR-UHFFFAOYSA-N,O1CCCC1C(=O)NCCCN(C)c1nc(N)c2cc(OC)c(OC)cc2n1,C10H12O3,389.45599,0.8527,9,359.88,0,261.59671,1,"<I>N</I>-[3-[(4-amino-6,7-dimethoxy-quinazolin-2-yl)-methyl-amino]propyl]tetrahydrofuran-2-carboxamide"
"InChI=1S/C20H30/c1-7-16(2)10-8-11-17(3)13-14-19-18(4)12-9-15-20(19,5)6/h7-8,10-11,13-14H,9,12,15H2,1-6H3",IDMGVRDNZFQORW-UHFFFAOYSA-N,C1CCC(C)=C(C=CC(=CC=CC(=CC)C)C)C1(C)C,C12H7Cl3O2,270.45999,8.6680,4,293.75,1,15.979987,1,"2-[(1<I>E</I>,3<I>E</I>,5<I>E</I>,7<I>E</I>)-3,7-dimethylnona-1,3,5,7-tetraenyl]-1,3,3-trimethyl-cyclohexene"
"InChI=1S/C5H4N4O/c10-5-3-1-8-9-4(3)6-2-7-5/h1-2H,(H2,6,7,8,9,10)",OFCNXPDARWKPPY-UHFFFAOYSA-N,O=C1N=CNc2[nH]ncc12,C13H10N2O3S,136.114,0.3970,0,115.63,0,189.81149,0,"1,7-dihydropyrazolo[3,4-d]pyrimidin-4-one"
"InChI=1S/C9H16N2O4/c1-11(2)9-10-5-7(14)6(13)4(3-12)8(5)15-9/h4-8,12-14H,3H2,1-2H3",MKJAYSJDHSEFRI-UHFFFAOYSA-N,O1C2C(N=C1N(C)C)C(O)C(O)C2CO,C13H18O2,216.237,-1.5340,2,180.88,0,193.13489,1,"2-(dimethylamino)-6-(hydroxymethyl)-4,5,6,6<I>a</I>-tetrahydro-3<I>a</I><I>H</I>-cyclopenta[d]oxazole-4,5-diol"
"InChI=1S/C21H32O/c1-3-12-21(22)14-11-19-18-9-8-15-6-4-5-7-16(15)17(18)10-13-20(19,21)2/h3,6,16-19,22H,1,4-5,7-14H2,2H3",ATXHVCQZZJYMCF-UHFFFAOYSA-N,OC1(CCC2C3C(C4C(CC3)=CCCC4)CCC12C)CC=C,C13H9Cl3N2O,300.48599,4.4490,2,281.75,1,82.320045,0,"17-allyl-13-methyl-2,3,6,7,8,9,10,11,12,14,15,16-dodecahydro-1<I>H</I>-cyclopenta[a]phenanthren-17-ol"
"InChI=1S/C13H17NO2/c1-9(2)8-14-12-6-4-11(5-7-12)10(3)13(15)16/h4-7,10,14H,1,8H2,2-3H3,(H,15,16)",FPHLBGOJWPEVME-UHFFFAOYSA-N,OC(=O)C(C)c1ccc(NCC(C)=C)cc1,C14H12O3,219.284,2.3940,5,219.38,0,139.3963,1,2-[4-(2-methylallylamino)phenyl]propanoic acid
"InChI=1S/C21H22O10/c22-6-8-4-10-15(12(25)5-8)17(27)14-9(2-1-3-11(14)24)20(10)31-21-19(29)18(28)16(26)13(7-23)30-21/h1-5,13,16,18-26,28-29H,6-7H2",CPUHNROBVJNNPW-UHFFFAOYSA-N,O1C(CO)C(O)C(O)C(O)C1OC1c2c(C(=O)c3c1cccc3O)c(O)cc(c2)CO,C15H12N2O,434.397,-0.1480,4,342.88,1,301.57675,1,"1,8-dihydroxy-3-(hydroxymethyl)-10-[3,4,5-trihydroxy-6-(hydroxymethyl)tetrahydropyran-2-yl]oxy-10<I>H</I>-anthracen-9-one"
"InChI=1S/C17H18N4O/c1-11-13(19-10-18-11)9-21-8-7-15-16(17(21)22)12-5-3-4-6-14(12)20(15)2/h3-6,10H,7-9H2,1-2H3,(H,18,19)",JSWZEAMFRNKZNL-UHFFFAOYSA-N,O=C1N(CCc2n(c3c(c12)cccc3)C)Cc1nc[nH]c1C,C4H4KNO4S,294.358,1.6030,2,285.88,0,100.99125,0,"5-methyl-2-[(5-methyl-1<I>H</I>-imidazol-4-yl)methyl]-3,4-dihydropyrido[4,3-b]indol-1-one"
"InChI=1S/C10H7NO3/c11-6-8(10(13)14)4-7-2-1-3-9(12)5-7/h1-5,12H,(H,13,14)",HPLNTJVXWMJLNJ-UHFFFAOYSA-N,Oc1cc(ccc1)C=C(C#N)C(O)=O,C7H8N4O2,189.17,1.3620,3,175.00,0,209.9823,0,(<I>E</I>)-2-cyano-3-(3-hydroxyphenyl)prop-2-enoic acid
"InChI=1S/C10H7NO3/c11-6-8(10(13)14)5-7-1-3-9(12)4-2-7/h1-5,12H,(H,13,14)",AFVLVVWMAFSXCK-UHFFFAOYSA-N,Oc1ccc(cc1)C=C(C#N)C(O)=O,C8H10N4O2,189.17,1.3250,3,173.13,0,209.69214,1,(<I>E</I>)-2-cyano-3-(4-hydroxyphenyl)prop-2-enoic acid
"InChI=1S/C23H38FN8O17P3/c1-23(2,17(35)21(37)28-6-4-13(33)27-5-3-11(24)19(26)36)8-46-52(43,44)49-51(41,42)45-7-12-16(48-50(38,39)40)15(34)22(47-12)32-10-31-14-18(25)29-9-30-20(14)32/h9-12,15-17,22,34-3 5H,3-8H2,1-2H3,(H2,26,36)(H,27,33)(H,28,37)(H,41,42)(H,",AXBPCHJFKHSRQL-UHFFFAOYSA-N,P(OCC1OC(n2c3ncnc(N)c3nc2)C(O)C1OP(O)(O)=O)(OP(OCC(C(O)C(=O)NCCC(=O)NCCC(F)C(=O)N)(C)C)(O)=O)(O)=O,C8H14ClN5,810.51599,-6.1149,22,564.38,3,687.44586,1,"[[4-[[3-[(4-amino-3-fluoro-4-oxo-butyl)amino]-3-oxo-propyl]amino]-3-hydroxy-2,2-dimethyl-4-oxo-butoxy]-hydroxy-phosphoryl] [5-(6-aminopurin-9-yl)-4-hydroxy-3-phosphonooxy-tetrahydrofuran-2-yl]methyl h ydrogen phosphate"
"InChI=1S/C23H37FN7O18P3/c1-23(2,17(34)20(35)27-6-4-13(32)26-5-3-11(24)22(36)37)8-46-52(43,44)49-51(41,42)45-7-12-16(48-50(38,39)40)15(33)21(47-12)31-10-30-14-18(25)28-9-29-19(14)31/h9-12,15-17,21,33-3 4H,3-8H2,1-2H3,(H,26,32)(H,27,35)(H,36,37)(H,41,42)(H,4",JYRBBNPCUSRRNJ-UHFFFAOYSA-N,P(OCC1OC(n2c3ncnc(N)c3nc2)C(O)C1OP(O)(O)=O)(OP(OCC(C(O)C(=O)NCCC(=O)NCCC(F)C(O)=O)(C)C)(O)=O)(O)=O,C8H8O3,811.5,-5.3809,22,562.63,3,642.66345,0,"4-[3-[[4-[[[5-(6-aminopurin-9-yl)-4-hydroxy-3-phosphonooxy-tetrahydrofuran-2-yl]methoxy-hydroxy-phosphoryl]oxy-hydroxy-phosphoryl]oxy-2-hydroxy-3,3-dimethyl-butanoyl]amino]propanoylamino]-2-fluoro-but anoic acid"
"InChI=1S/C6H11N3O4/c7-6(8)9-3(5(12)13)1-2-4(10)11/h3H,1-2H2,(H,10,11)(H,12,13)(H4,7,8,9)",RHVVRMJOHATSPD-UHFFFAOYSA-N,OC(=O)C(N=C(N)N)CCC(O)=O,C8H9NO2,189.17099,-1.0730,5,147.75,1,298.68719,1,2-guanidinopentanedioic acid
"InChI=1S/C15H27O4P/c1-12(2)7-5-8-13(3)9-6-10-14(4)11-15(16)20(17,18)19/h7,9,11,15-16H,5-6,8,10H2,1-4H3,(H2,17,18,19)",MONZTFSZTWQCKH-UHFFFAOYSA-N,P(O)(O)(=O)C(O)C=C(CCC=C(CCC=C(C)C)C)C,C9H10O3,302.35098,0.6130,8,275.75,0,182.41434,0,"[(2<I>E</I>,6<I>Z</I>)-1-hydroxy-3,7,11-trimethyl-dodeca-2,6,10-trienyl]phosphonic acid"
"InChI=1S/C11H14N2O/c1-7(12)4-8-6-13-11-3-2-9(14)5-10(8)11/h2-3,5-7,13-14H,4,12H2,1H3",LYPCGXKCQDYTFV-UHFFFAOYSA-N,Oc1cc2c([nH]cc2CC(N)C)cc1,C9H8O2,190.246,1.6420,2,181.88,0,152.75401,1,3-(2-aminopropyl)-1<I>H</I>-indol-5-ol
"InChI=1S/C7H14O6/c1-12-7-6(11)5(10)4(9)3(2-8)13-7/h3-11H,2H2,1H3",HOVAGTYPODGVJG-UHFFFAOYSA-N,O1C(CO)C(O)C(O)C(O)C1OC,C10H11ClO3,194.183,-2.3200,2,146.63,0,187.56657,1,"2-(hydroxymethyl)-6-methoxy-tetrahydropyran-3,4,5-triol"
"InChI=1S/C5H9NO4/c1-5(6,4(9)10)2-3(7)8/h2,6H2,1H3,(H,7,8)(H,9,10)",CWAYDJFPMMUKOI-UHFFFAOYSA-N,OC(=O)C(N)(CC(O)=O)C,C10H11N3O3S,147.12999,-3.3987,3,111.50,0,212.52274,0,2-amino-2-methyl-butanedioic acid
"InChI=1S/C10H13NO3/c1-10(11,9(13)14)6-7-3-2-4-8(12)5-7/h2-5,12H,6,11H2,1H3,(H,13,14)",CAHPJJJZLQXPKS-UHFFFAOYSA-N,Oc1cc(ccc1)CC(N)(C(O)=O)C,C10H12O3,195.218,-1.3867,3,168.75,0,174.99373,1,2-amino-3-(3-hydroxyphenyl)-2-methyl-propanoic acid
"InChI=1S/C6H13NO2S/c1-6(7,5(8)9)3-4-10-2/h3-4,7H2,1-2H3,(H,8,9)",ZYVMPHJZWXIFDQ-UHFFFAOYSA-N,S(CCC(N)(C(O)=O)C)C,C12H7Cl3O2,163.241,-1.9957,4,132.13,0,193.10088,0,2-amino-2-methyl-4-methylsulfanyl-butanoic acid
"InChI=1S/C11H15NO3/c1-11(12,10(14)15-2)7-8-3-5-9(13)6-4-8/h3-6,13H,7,12H2,1-2H3",WYJJUDJUEGRXHZ-UHFFFAOYSA-N,Oc1ccc(cc1)CC(N)(C(OC)=O)C,C13H10N2O3S,209.245,1.2390,4,188.13,0,161.29915,1,methyl 2-amino-3-(4-hydroxyphenyl)-2-methyl-propanoate
"InChI=1S/C6H14N2O2/c1-6(8,5(9)10)3-2-4-7/h2-4,7-8H2,1H3,(H,9,10)",LNDPCYHWPSQBCA-UHFFFAOYSA-N,OC(=O)C(N)(CCCN)C,C13H18O2,146.19,-3.0237,4,124.00,0,200.01303,1,"2,5-diamino-2-methyl-pentanoic acid"
"InChI=1S/C10H9O4P.Na/c11-15(12,13)14-10-7-3-5-8-4-1-2-6-9(8)10;/h1-7H,(H2,11,12,13);/q;+1/p-1",DELRLFMUZXCKAR-UHFFFAOYSA-M,P(Oc1c2c(ccc1)cccc2)(O)(=O)[O-].[Na+],C13H9Cl3N2O,246.134,1.5330,2,225.38,0,305.25354,0,sodium;1-naphthyl hydrogen phosphate
"InChI=1S/C10H9O4P/c11-15(12,13)14-10-7-3-5-8-4-1-2-6-9(8)10/h1-7H,(H2,11,12,13)",YNXICDMQCQPQEW-UHFFFAOYSA-N,P(Oc1c2c(ccc1)cccc2)(O)(O)=O,C14H12O3,224.15199,1.5830,2,180.63,0,142.25238,1,1-naphthyl dihydrogen phosphate
"InChI=1S/C29H50O2/c1-20(2)12-9-13-21(3)14-10-15-22(4)16-11-18-29(8)19-17-26-25(7)27(30)23(5)24(6)28(26)31-29/h20-22,30H,9-19H2,1-8H3",GVJHHUAWPYXKBD-UHFFFAOYSA-N,O1c2c(CCC1(CCCC(CCCC(CCCC(C)C)C)C)C)c(C)c(O)c(C)c2C,C15H12N2O,430.71698,10.2050,12,442.25,1,31.88176,0,"2,5,7,8-tetramethyl-2-(4,8,12-trimethyltridecyl)chroman-6-ol"
"InChI=1S/C31H52O3/c1-21(2)13-10-14-22(3)15-11-16-23(4)17-12-19-31(9)20-18-28-26(7)29(33-27(8)32)24(5)25(6)30(28)34-31/h21-23H,10-20H2,1-9H3",ZAKOWWREFLAJOT-UHFFFAOYSA-N,O1c2c(CCC1(CCCC(CCCC(CCCC(C)C)C)C)C)c(C)c(OC(=O)C)c(C)c2C,C4H4KNO4S,472.754,10.4460,14,465.88,1,35.163353,1,"[2,5,7,8-tetramethyl-2-(4,8,12-trimethyltridecyl)chroman-6-yl] acetate"
"InChI=1S/C17H13ClN4/c1-11-20-21-16-10-19-17(12-5-3-2-4-6-12)14-9-13(18)7-8-15(14)22(11)16/h2-9H,10H2,1H3",VREFGVBLTWBCJP-UHFFFAOYSA-N,Clc1cc2c(-n3c(nnc3C)CN=C2c2ccccc2)cc1,C7H6O3,308.772,4.0000,1,283.75,0,71.8629,1,"8-chloro-1-methyl-6-phenyl-4<I>H</I>-[1,2,4]triazolo[4,3-a][1,4]benzodiazepine"
"InChI=1S/C15H23NO2/c1-4-7-13-8-5-6-9-15(13)18-11-14(17)10-16-12(2)3/h4-6,8-9,12,14,16-17H,1,7,10-11H2,2-3H3",PAZJSJFMUHDSTF-UHFFFAOYSA-N,O(CC(O)CNC(C)C)c1ccccc1CC=C,C7H8N4O2,249.35399,2.6210,8,256.25,0,88.029343,0,1-(2-allylphenoxy)-3-(isopropylamino)propan-2-ol
"InChI=1S/C14H9NO4/c16-11(17)7-15-13(18)9-5-1-3-8-4-2-6-10(12(8)9)14(15)19/h1-6H,7H2,(H,16,17)",GCUCIFQCGJIRNT-UHFFFAOYSA-N,O=C1N(CC(O)=O)C(=O)c2c3c1cccc3ccc2,C8H10N4O2,255.22899,1.7960,2,225.25,0,161.3367,1,"2-(1,3-dioxobenzo[de]isoquinolin-2-yl)acetic acid"
"InChI=1S/C11H14ClN3O4S3/c1-2-3-20-6-11-14-8-4-7(12)9(21(13,16)17)5-10(8)22(18,19)15-11/h2,4-5,11,14-15H,1,3,6H2,(H2,13,16,17)",VGLGVJVUHYTIIU-UHFFFAOYSA-N,Clc1cc2NC(NS(=O)(=O)c2cc1S(=O)(=O)N)CSCC=C,C8H14ClN5,383.901,0.8000,5,262.88,0,301.95172,0,"3-(allylsulfanylmethyl)-6-chloro-1,1-dioxo-3,4-dihydro-2<I>H</I>-1&lambda;<sup>6</sup>,2,4-benzothiadiazine-7-sulfonamide"
InChI=1S/C9H18N6/c1-13(2)7-10-8(14(3)4)12-9(11-7)15(5)6/h1-6H3,UUVWYPNAQBNQJQ-UHFFFAOYSA-N,n1c(nc(nc1N(C)C)N(C)C)N(C)C,C8H8O3,210.285,-0.6800,3,212.25,0,152.68484,1,"<I>N</I>2,<I>N</I>2,<I>N</I>4,<I>N</I>4,<I>N</I>6,<I>N</I>6-hexamethyl-1,3,5-triazine-2,4,6-triamine"
InChI=1S/Al.3FH/h;3*1H/q+3;;;/p-3,KLZUFWVZNOTSEM-UHFFFAOYSA-K,[Al](F)(F)F,C8H9NO2,83.975998,1.3688,0,45.13,0,187.95673,1,trifluoroalumane
"InChI=1S/C22H21Cl2IN4O/c1-14-20(22(30)27-28-11-3-2-4-12-28)26-29(19-10-7-16(23)13-18(19)24)21(14)15-5-8-17(25)9-6-15/h5-10,13H,2-4,11-12H2,1H3,(H,27,30)",BUZAJRPLUGXRAB-UHFFFAOYSA-N,Ic1ccc(cc1)-c1n(nc(C(=O)NN2CCCCC2)c1C)-c1ccc(Cl)cc1Cl,C9H10O3,555.24701,5.9430,5,405.38,2,60.736973,0,"1-(2,4-dichlorophenyl)-5-(4-iodophenyl)-4-methyl-<I>N</I>-(1-piperidyl)pyrazole-3-carboxamide"
"InChI=1S/C22H25NO3/c1-21(2)11-12-22(3,4)18-13-15(7-10-17(18)21)19(24)23-16-8-5-14(6-9-16)20(25)26/h5-10,13H,11-12H2,1-4H3,(H,23,24)(H,25,26)",SZWKGOZKRMMLAJ-UHFFFAOYSA-N,OC(=O)c1ccc(NC(=O)c2cc3c(cc2)C(CCC3(C)C)(C)C)cc1,C9H8O2,351.44598,5.0750,4,324.50,0,137.09846,1,"4-[(1,1,4,4-tetramethyltetralin-6-carbonyl)amino]benzoic acid"
"InChI=1S/C26H37NO2/c1-2-3-4-5-6-7-8-9-10-11-12-13-14-15-16-17-18-19-26(29)27-24-20-22-25(28)23-21-24/h6-7,9-10,12-13,15-16,20-23,28H,2-5,8,11,14,17-19H2,1H3,(H,27,29)",IJBZOOZRAXHERC-UHFFFAOYSA-N,Oc1ccc(NC(=O)CCCC=CCC=CCC=CCC=CCCCCC)cc1,C10H11ClO3,395.58701,6.1480,16,421.25,1,180.96353,0,"(5<I>E</I>,8<I>E</I>,11<I>E</I>,14<I>E</I>)-<I>N</I>-(4-hydroxyphenyl)icosa-5,8,11,14-tetraenamide"