InChI,Key,smiles,Formula,Weight,logP(o/w),b_rotN,vol,lip_violation,ASA_P,Natural,ChemicalName
"InChI=1S/C9H15N4O9P/c10-3-6(12-9(17)13-7(3)16)11-8-5(15)4(14)2(22-8)1-21-23(18,19)20/h2,4-5,8,14-15H,1,10H2,(H2,18,19,20)(H3,11,12,13,16,17)",LZEXYCAGPMYXLX-UHFFFAOYSA-N,P(OCC1OC(NC=2NC(=O)NC(=O)C=2N)C(O)C1O)(O)(O)=O,C10H11ClO3,354.21201,-4.1800,5,242.13,2,433.29465,1,"[5-[(5-amino-2,4-dioxo-1<I>H</I>-pyrimidin-6-yl)amino]-3,4-dihydroxy-tetrahydrofuran-2-yl]methyl dihydrogen phosphate"
"InChI=1S/C12H21N3O13P2/c13-8-1-2-15(12(20)14-8)11-10(19)9(18)7(27-11)5-26-30(23,24)28-29(21,22)25-4-6(17)3-16/h1-2,6-7,9-11,16-19H,3-5H2,(H,21,22)(H,23,24)(H2,13,14,20)",HHPOUCCVONEPRK-UHFFFAOYSA-N,P(OCC1OC(N2C=CC(=NC2=O)N)C(O)C1O)(OP(OCC(O)CO)(O)=O)(O)=O,C10H11N3O3S,477.25598,-5.1220,10,320.13,2,446.46899,1,"[[5-(4-amino-2-oxo-pyrimidin-1-yl)-3,4-dihydroxy-tetrahydrofuran-2-yl]methoxy-hydroxy-phosphoryl] 2,3-dihydroxypropyl hydrogen phosphate"
"InChI=1S/C10H17N5O16P4/c11-8-5-9(13-2-12-8)15(3-14-5)10-7(17)6(16)4(28-10)1-27-33(21,22)30-35(25,26)31-34(23,24)29-32(18,19)20/h2-4,6-7,10,16-17H,1H2,(H,21,22)(H,23,24)(H,25,26)(H2,11,12,13)(H2,18,19, 20)",WWMWAMFHUSTZTA-UHFFFAOYSA-N,P(OCC1OC(n2c3ncnc(N)c3nc2)C(O)C1O)(OP(OP(OP(O)(O)=O)(O)=O)(O)=O)(O)=O,C10H12O3,587.16101,-5.8519,10,350.50,3,611.18903,0,"[[5-(6-aminopurin-9-yl)-3,4-dihydroxy-tetrahydrofuran-2-yl]methoxy-hydroxy-phosphoryl] [hydroxy(phosphonooxy)phosphoryl] hydrogen phosphate"
"InChI=1S/C20H28N10O21P4/c21-19-25-13-7(15(35)27-19)23-3-29(13)17-11(33)9(31)5(47-17)1-45-52(37,38)49-54(41,42)51-55(43,44)50-53(39,40)46-2-6-10(32)12(34)18(48-6)30-4-24-8-14(30)26-20(22)28-16(8)36/h3- 6,9-12,17-18,31-34H,1-2H2,(H,37,38)(H,39,40)(H,41,42)(H",OLGWXCQXRSSQPO-UHFFFAOYSA-N,P(OCC1OC(n2c3NC(=NC(=O)c3nc2)N)C(O)C1O)(OP(OP(OP(OCC1OC(n2c3NC(=NC(=O)c3nc2)N)C(O)C1O)(O)=O)(O)=O)(O)=O)(O)=O,C12H7Cl3O2,868.38898,-7.1260,14,559.50,3,796.19513,1,"[[5-(2-amino-6-oxo-3<I>H</I>-purin-9-yl)-3,4-dihydroxy-tetrahydrofuran-2-yl]methoxy-hydroxy-phosphoryl] [[[5-(2-amino-6-oxo-3<I>H</I>-purin-9-yl)-3,4-dihydroxy-tetrahydrofuran-2-yl]methoxy-hydroxy-pho sphoryl]oxy-hydroxy-phosphoryl] hydrogen phosphate"
"InChI=1S/H3O9P3/c1-10(2)7-11(3,4)9-12(5,6)8-10/h(H,1,2)(H,3,4)(H,5,6)",AZSFNUJOCKMOGB-UHFFFAOYSA-N,P1(OP(OP(O1)(O)=O)(O)=O)(O)=O,C13H10N2O3S,239.937,-2.7080,0,108.75,0,325.392,0,"2,4,6-trihydroxy-1,3,5,2&lambda;<sup>5</sup>,4&lambda;<sup>5</sup>,6&lambda;<sup>5</sup>-trioxatriphosphinane 2,4,6-trioxide"
"InChI=1S/C12H19N4O10P3S/c1-8-11(30-7-16(8)6-10-5-14-9(2)15-12(10)13)3-4-24-28(20,21)26-29(22,23)25-27(17,18)19/h5,7H,3-4,6H2,1-2H3,(H5-,13,14,15,17,18,19,20,21,22,23)/p+1",IWLROWZYZPNOFC-UHFFFAOYSA-O,s1c[n+](Cc2cnc(nc2N)C)c(C)c1CCOP(OP(OP(O)(O)=O)(O)=O)(O)=O,C13H18O2,505.298,-2.1770,10,335.25,3,404.87833,1,[2-[3-[(4-amino-2-methyl-pyrimidin-5-yl)methyl]-4-methyl-thiazol-3-ium-5-yl]ethoxy-hydroxy-phosphoryl] phosphono hydrogen phosphate
"InChI=1S/C12H10O4/c13-10(9-5-2-1-3-6-9)7-4-8-11(14)12(15)16/h1-6,8H,7H2,(H,15,16)",QPGAZPBFRAAJBD-UHFFFAOYSA-N,OC(=O)C(=O)\C=C\CC(=O)c1ccccc1,C13H9Cl3N2O,218.20799,1.4250,5,205.63,0,189.13632,1,"(<I>E</I>)-2,6-dioxo-6-phenyl-hex-3-enoic acid"
"InChI=1S/C7H10O7/c1-7(14,6(12)13)3(5(10)11)2-4(8)9/h3,14H,2H2,1H3,(H,8,9)(H,10,11)(H,12,13)",HHKPKXCSHMJWCF-UHFFFAOYSA-N,OC(C(CC(O)=O)C(O)=O)(C(O)=O)C,C14H12O3,206.14999,-1.3280,5,146.38,0,261.71866,0,"3-hydroxybutane-1,2,3-tricarboxylic acid"
"InChI=1S/C17H18N5O10P/c18-14-10-15(20-5-19-14)22(6-21-10)16-13(26)12(25)9(31-16)4-30-33(28,29)32-17(27)7-2-1-3-8(23)11(7)24/h1-3,5-6,9,12-13,16,23-26H,4H2,(H,28,29)(H2,18,19,20)",ULPVJDOMCRTJSN-UHFFFAOYSA-N,P(OC(=O)c1cccc(O)c1O)(OCC1OC(n2c3ncnc(N)c3nc2)C(O)C1O)(O)=O,C15H12N2O,483.32999,-1.7439,7,363.25,2,438.91409,1,"[[5-(6-aminopurin-9-yl)-3,4-dihydroxy-tetrahydrofuran-2-yl]methoxy-hydroxy-phosphoryl] 2,3-dihydroxybenzoate"
"InChI=1S/C7H10O7/c1-3(5(10)11)7(14,6(12)13)2-4(8)9/h3,14H,2H2,1H3,(H,8,9)(H,10,11)(H,12,13)",YNOXCRMFGMSKIJ-UHFFFAOYSA-N,OC(C(C(O)=O)C)(CC(O)=O)C(O)=O,C4H4KNO4S,206.14999,-1.1560,5,145.25,0,268.36972,0,"2-hydroxybutane-1,2,3-tricarboxylic acid"
"InChI=1S/C6H14O10P2/c1-6(9,4-5(7)8)2-3-15-18(13,14)16-17(10,11)12/h9H,2-4H2,1H3,(H,7,8)(H,13,14)(H2,10,11,12)",SIGQQUBJQXSAMW-UHFFFAOYSA-N,P(OCCC(O)(CC(O)=O)C)(OP(O)(O)=O)(O)=O,C7H6O3,308.116,-2.3040,8,186.75,0,306.40298,1,3-hydroxy-5-[hydroxy(phosphonooxy)phosphoryl]oxy-3-methyl-pentanoic acid
"InChI=1S/C43H50N4O16/c1-19-40-23(13-37(58)59)21(5-9-33(50)51)27(46-40)14-26-20(4-8-32(48)49)22(12-36(56)57)28(44-26)15-29-24(6-10-34(52)53)42(2,17-38(60)61)31(45-29)16-30-25(7-11-35(54)55)43(3,18-39(6 2)63)41(19)47-30/h15-16,24-25,44-46H,4-14,17-18H2,1-3H3",VNBNVFSXZUYRKF-UHFFFAOYSA-N,OC(=O)CC1(C=2N=C(C=C3NC(=Cc4[nH]c(Cc5[nH]c(c(CC(O)=O)c5CCC(O)=O)C=2C)c(CCC(O)=O)c4CC(O)=O)C(CCC(O)=O)C3(CC(O)=O)C)C1CCC(O)=O)C,C7H8N4O2,878.88501,1.2860,20,674.00,3,670.55554,1,"3-[(5<I>Z</I>,9<I>Z</I>,14<I>Z</I>)-7,12,18-tris(2-carboxyethyl)-3,8,13,17-tetrakis(carboxymethyl)-8,13,15-trimethyl-7,12,20,21,22,24-hexahydroporphyrin-2-yl]propanoic acid"
"InChI=1S/C6H11O9P/c7-3(1-5(9)10)6(11)4(8)2-15-16(12,13)14/h3,6-7,11H,1-2H2,(H,9,10)(H2,12,13,14)",OLUPOJQIFXQXIT-UHFFFAOYSA-N,P(OCC(=O)C(O)C(O)CC(O)=O)(O)(O)=O,C8H14ClN5,258.11899,-3.2890,7,171.88,0,352.74429,1,"3,4-dihydroxy-5-oxo-6-phosphonooxy-hexanoic acid"
"InChI=1S/C18H40NO5P/c1-2-3-4-5-6-7-8-9-10-11-12-13-14-15-18(20)17(19)16-24-25(21,22)23/h17-18,20H,2-16,19H2,1H3,(H2,21,22,23)",YHEDRJPUIRMZMP-UHFFFAOYSA-N,P(OCC(N)C(O)CCCCCCCCCCCCCCC)(O)(O)=O,C8H8O3,381.49399,4.0420,18,339.38,0,226.55658,0,(2-amino-3-hydroxy-octadecyl) dihydrogen phosphate
"InChI=1S/C25H42N7O18P3S/c1-13(33)8-16(35)54-7-6-27-15(34)4-5-28-23(38)20(37)25(2,3)10-47-53(44,45)50-52(42,43)46-9-14-19(49-51(39,40)41)18(36)24(48-14)32-12-31-17-21(26)29-11-30-22(17)32/h11-14,18-20, 24,33,36-37H,4-10H2,1-3H3,(H,27,34)(H,28,38)(H,42,43)(H",QHHKKMYHDBRONY-UHFFFAOYSA-N,S(C(=O)CC(O)C)CCNC(=O)CCNC(=O)C(O)C(COP(OP(OCC1OC(n2c3ncnc(N)c3nc2)C(O)C1OP(O)(O)=O)(O)=O)(O)=O)(C)C,C8H9NO2,853.63,-5.3029,24,602.75,3,650.8606,1,"<I>S</I>-[2-[3-[[4-[[[5-(6-aminopurin-9-yl)-4-hydroxy-3-phosphonooxy-tetrahydrofuran-2-yl]methoxy-hydroxy-phosphoryl]oxy-hydroxy-phosphoryl]oxy-2-hydroxy-3,3-dimethyl-butanoyl]amino]propanoylamino]eth yl] 3-hydroxybutanethioate"
"InChI=1S/C44H52N4O17/c1-20(49)44-40-25(14-37(60)61)41(2,12-11-35(56)57)30(47-40)16-27-21(5-8-32(50)51)22(13-36(58)59)26(45-27)15-28-23(6-9-33(52)53)42(3,18-38(62)63)31(46-28)17-29(48-44)24(7-10-34(54) 55)43(44,4)19-39(64)65/h17,24,45,48H,5-16,18-19H2,1-4H3",IOBDBIPWYQGVMM-UHFFFAOYSA-N,OC(=O)CC1(C)C2(NC(=CC3=NC(Cc4[nH]c(CC5=NC2=C(CC(O)=O)C5(CCC(O)=O)C)c(CCC(O)=O)c4CC(O)=O)=C(CCC(O)=O)C3(CC(O)=O)C)C1CCC(O)=O)C(=O)C,C9H10O3,908.91095,1.3230,21,648.88,3,633.58276,1,"3-[(15<I>Z</I>)-19-acetyl-3,12,17-tris(2-carboxyethyl)-2,8,13,18-tetrakis(carboxymethyl)-3,13,18-trimethyl-10,17,22,24-tetrahydro-5<I>H</I>-corrin-7-yl]propanoic acid"
"InChI=1S/C5H6O4/c6-3-1-2-4(7)5(8)9/h3H,1-2H2,(H,8,9)",VHKNBDIQDAXGBL-UHFFFAOYSA-N,OC(=O)C(=O)CCC=O,C9H8O2,130.099,-0.7190,4,109.50,0,194.35686,0,"2,5-dioxopentanoic acid"
"InChI=1S/C4H4O6/c5-1(3(7)8)2(6)4(9)10/h1,5H,(H,7,8)(H,9,10)",RMHHUKGVZFVHED-UHFFFAOYSA-N,OC(C(=O)C(O)=O)C(O)=O,C10H11ClO3,148.06999,-1.7180,3,105.63,0,267.98041,1,2-hydroxy-3-oxo-butanedioic acid
"InChI=1S/C4H6O5/c5-2(4(8)9)1-3(6)7/h2,5H,1H2,(H,6,7)(H,8,9)",BJEPYKJPYRNKOW-UHFFFAOYSA-N,OC(CC(O)=O)C(O)=O,C10H11N3O3S,134.08699,-1.1850,3,100.13,0,213.63982,0,2-hydroxybutanedioic acid
"InChI=1S/C45H54N4O17/c1-21(50)45-40-26(15-37(61)62)41(2,13-12-35(57)58)30(47-40)16-27-22(6-9-32(51)52)25(14-36(59)60)44(5,48-27)18-29-23(7-10-33(53)54)42(3,19-38(63)64)31(46-29)17-28(49-45)24(8-11-34( 55)56)43(45,4)20-39(65)66/h17,24,49H,6-16,18-20H2,1-5H3",OUPXZNRNMLYOGK-UHFFFAOYSA-N,OC(=O)CC1(C)C2(NC(=CC3=NC(CC4(N=C(CC5=NC2=C(CC(O)=O)C5(CCC(O)=O)C)C(CCC(O)=O)=C4CC(O)=O)C)=C(CCC(O)=O)C3(CC(O)=O)C)C1CCC(O)=O)C(=O)C,C10H12O3,922.93799,0.7250,21,646.50,3,583.94012,1,"3-[(4<I>Z</I>)-1-acetyl-8,13,17-tris(2-carboxyethyl)-2,7,12,18-tetrakis(carboxymethyl)-2,7,11,17-tetramethyl-3,10,15,21-tetrahydrocorrin-3-yl]propanoic acid"
"InChI=1S/C3H6O/c1-2-3-4/h3H,2H2,1H3",NBBJYMSMWIIQGU-UHFFFAOYSA-N,O=CCC,C12H7Cl3O2,58.079998,0.6460,1,62.88,0,68.461464,1,propanal
"InChI=1S/C6H11NO4/c1-4(8)11-3-2-5(7)6(9)10/h5H,2-3,7H2,1H3,(H,9,10)",FCXZBWSIAGGPCB-UHFFFAOYSA-N,O(C(=O)C)CCC(N)C(O)=O,C13H10N2O3S,161.157,-3.0617,5,136.25,0,191.19904,0,4-acetoxy-2-amino-butanoic acid
"InChI=1S/C2H5O6P/c3-2(4)1-8-9(5,6)7/h1H2,(H,3,4)(H2,5,6,7)",ASCFNMCAHFUBCO-UHFFFAOYSA-N,P(OCC(O)=O)(O)(O)=O,C13H18O2,156.03,-1.7860,3,94.50,0,255.74554,1,2-phosphonooxyacetic acid
"InChI=1S/C20H24N8O6/c21-9-28-12(8-24-16-15(28)18(32)27-20(22)26-16)7-23-11-3-1-10(2-4-11)17(31)25-13(19(33)34)5-6-14(29)30/h1-4,9,12-13,21,23H,5-8H2,(H,25,31)(H,29,30)(H,33,34)(H4,22,24,26,27,32)/b21- 9+",YCWUVLPMLLBDCU-ZVBGSRNCSA-N,O=C1N=C(NC=2NCC(N(C1=2)C=N)CNc1ccc(cc1)C(=O)NC(CCC(O)=O)C(O)=O)N,C13H9Cl3N2O,472.46201,0.1480,11,401.38,2,456.48285,0,"2-[[4-[(2-amino-5-methanimidoyl-4-oxo-1,6,7,8-tetrahydropteridin-6-yl)methylamino]benzoyl]amino]pentanedioic acid"
"InChI=1S/C25H43N8O17P3S/c1-13(26)8-16(35)54-7-6-28-15(34)4-5-29-23(38)20(37)25(2,3)10-47-53(44,45)50-52(42,43)46-9-14-19(49-51(39,40)41)18(36)24(48-14)33-12-32-17-21(27)30-11-31-22(17)33/h11-14,18-20, 24,36-37H,4-10,26H2,1-3H3,(H,28,34)(H,29,38)(H,42,43)(H",CCSDHAPTHIKZLY-UHFFFAOYSA-N,S(C(=O)CC(N)C)CCNC(=O)CCNC(=O)C(O)C(COP(OP(OCC1OC(n2c3ncnc(N)c3nc2)C(O)C1OP(O)(O)=O)(O)=O)(O)=O)(C)C,C14H12O3,852.646,-5.5249,24,604.88,3,663.80225,1,"<I>S</I>-[2-[3-[[4-[[[5-(6-aminopurin-9-yl)-4-hydroxy-3-phosphonooxy-tetrahydrofuran-2-yl]methoxy-hydroxy-phosphoryl]oxy-hydroxy-phosphoryl]oxy-2-hydroxy-3,3-dimethyl-butanoyl]amino]propanoylamino]eth yl] 3-aminobutanethioate"
"InChI=1S/C44H54N4O16/c1-40(13-12-34(55)56)25(15-36(59)60)39-44(5)42(3,20-38(63)64)23(8-11-33(53)54)27(48-44)17-30-41(2,19-37(61)62)22(7-10-32(51)52)28(45-30)18-43(4)24(14-35(57)58)21(6-9-31(49)50)26(4 7-43)16-29(40)46-39/h16-17,23,46,48H,6-15,18-20H2,1-5H3",CJGNMYWHRHHNGH-UHFFFAOYSA-N,OC(=O)CC1(C)C2(NC(=CC3=NC(CC4(N=C(C=C5NC2=C(CC(O)=O)C5(CCC(O)=O)C)C(CCC(O)=O)=C4CC(O)=O)C)=C(CCC(O)=O)C3(CC(O)=O)C)C1CCC(O)=O)C,C15H12N2O,894.92798,2.1420,20,696.38,3,494.98465,1,"3-[(4<I>Z</I>,15<I>Z</I>)-8,13,17-tris(2-carboxyethyl)-2,7,12,18-tetrakis(carboxymethyl)-1,2,7,11,17-pentamethyl-3,10,21,24-tetrahydrocorrin-3-yl]propanoic acid"
InChI=1S/H2Se/h1H2,SPVXKVOXSXTJOY-UHFFFAOYSA-N,[SeH2],C4H4KNO4S,80.978996,0.2680,0,32.13,0,0,0,hydrogen selenide
"InChI=1S/C44H56N4O16/c1-40(13-12-34(55)56)25(15-36(59)60)39-44(5)42(3,20-38(63)64)23(8-11-33(53)54)27(48-44)17-30-41(2,19-37(61)62)22(7-10-32(51)52)28(45-30)18-43(4)24(14-35(57)58)21(6-9-31(49)50)26(4 7-43)16-29(40)46-39/h16-17,23,25,39,46,48H,6-15,18-20H2",UZVGLSZJXWVSGT-UHFFFAOYSA-N,OC(=O)CC1(C)C2(NC(=CC3=NC(CC4(N=C(C=C5NC2C(CC(O)=O)C5(CCC(O)=O)C)C(CCC(O)=O)=C4CC(O)=O)C)=C(CCC(O)=O)C3(CC(O)=O)C)C1CCC(O)=O)C,C7H6O3,896.94397,1.0750,20,696.38,3,668.69415,1,"3-[(4<I>Z</I>,15<I>Z</I>)-8,13,17-tris(2-carboxyethyl)-2,7,12,18-tetrakis(carboxymethyl)-1,2,7,11,17-pentamethyl-3,10,18,19,21,24-hexahydrocorrin-3-yl]propanoic acid"
"InChI=1S/C4H7NO2/c5-4(1-2-4)3(6)7/h1-2,5H2,(H,6,7)",PAJPWUMXBYXFCZ-UHFFFAOYSA-N,OC(=O)C1(N)CC1,C7H8N4O2,101.105,-2.8007,1,85.50,0,188.6955,0,1-aminocyclopropanecarboxylic acid
"InChI=1S/C45H60N4O14/c1-21-36-24(9-12-29(50)51)23(3)44(7,48-36)18-28-25(10-13-30(52)53)42(5,19-34(60)61)39(46-28)22(2)37-26(11-14-31(54)55)43(6,20-35(62)63)45(8,49-37)40-27(17-33(58)59)41(4,38(21)47-4 0)16-15-32(56)57/h21,25-27,40,48H,3,9-20H2,1-2,4-8H3,(H",LPJNFGOOIPHXHU-UHFFFAOYSA-N,OC(=O)CC1(C)C2(N=C(C1CCC(O)=O)C(=C1N=C(CC3(NC(=C(CCC(O)=O)C3=C)C(C3=NC2C(CC(O)=O)C3(CCC(O)=O)C)C)C)C(CCC(O)=O)C1(CC(O)=O)C)C)C,C8H10N4O2,880.98895,0.9040,18,644.88,4,538.36334,1,"3-[(5<I>Z</I>)-3,13,17-tris(2-carboxyethyl)-2,7,18-tris(carboxymethyl)-1,2,5,7,11,15,17-heptamethyl-12-methylene-8,10,15,18,19,23-hexahydro-3<I>H</I>-corrin-8-yl]propanoic acid"
"InChI=1S/C45H62N4O14/c1-21-36-24(10-13-30(52)53)41(3,4)28(47-36)18-27-23(9-12-29(50)51)43(6,19-34(60)61)39(46-27)22(2)37-25(11-14-31(54)55)44(7,20-35(62)63)45(8,49-37)40-26(17-33(58)59)42(5,38(21)48-4 0)16-15-32(56)57/h21,23-26,36,40H,9-20H2,1-8H3,(H,50,51",OJPCPVMJYANPLQ-UHFFFAOYSA-N,OC(=O)CC1(C)C2(N=C(C1CCC(O)=O)C(=C1N=C(CC3=NC(C(CCC(O)=O)C3(C)C)C(C3=NC2C(CC(O)=O)C3(CCC(O)=O)C)C)C(CCC(O)=O)C1(CC(O)=O)C)C)C,C8H14ClN5,883.005,0.6250,18,647.00,4,443.10892,1,"3-[(14<I>Z</I>)-3,12,17-tris(2-carboxyethyl)-2,13,18-tris(carboxymethyl)-3,5,8,8,13,15,18,19-octamethyl-1,2,5,6,7,10,12,17-octahydrocorrin-7-yl]propanoic acid"
"InChI=1S/C45H64N6O12/c1-21-36-24(10-13-32(56)57)41(3,4)28(49-36)18-27-23(9-12-31(54)55)43(6,19-29(46)52)39(48-27)22(2)37-25(11-14-33(58)59)44(7,20-30(47)53)45(8,51-37)40-26(17-35(62)63)42(5,38(21)50-4 0)16-15-34(60)61/h21,23-26,36,40H,9-20H2,1-8H3,(H2,46,5",OBSDOPNAKDHTOG-UHFFFAOYSA-N,OC(=O)CC1C2N=C(C1(CCC(O)=O)C)C(C1N=C(CC3=NC(C(CC(=O)N)(C)C3CCC(O)=O)=C(C3=NC2(C)C(CC(=O)N)(C)C3CCC(O)=O)C)C(C)(C)C1CCC(O)=O)C,C8H8O3,881.03699,-0.8430,18,649.00,3,475.51651,0,"3-[(14<I>Z</I>)-13,18-bis(2-amino-2-oxo-ethyl)-3,12,17-tris(2-carboxyethyl)-2-(carboxymethyl)-3,5,8,8,13,15,18,19-octamethyl-1,2,5,6,7,10,12,17-octahydrocorrin-7-yl]propanoic acid"
"InChI=1S/C45H64N6O12.Co/c1-21-36-24(10-13-32(56)57)41(3,4)28(49-36)18-27-23(9-12-31(54)55)43(6,19-29(46)52)39(48-27)22(2)37-25(11-14-33(58)59)44(7,20-30(47)53)45(8,51-37)40-26(17-35(62)63)42(5,38(21)5 0-40)16-15-34(60)61;/h21,23-26,36,40H,9-20H2,1-8H3,(H2,",YQSFSUFQKPICDG-UHFFFAOYSA-N,[Co].OC(=O)CC1C2N=C(C1(CCC(O)=O)C)C(C1N=C(CC3=NC(C(CC(=O)N)(C)C3CCC(O)=O)=C(C3=NC2(C)C(CC(=O)N)(C)C3CCC(O)=O)C)C(C)(C)C1CCC(O)=O)C,C8H9NO2,939.96997,-0.8430,18,663.38,3,566.99634,1,"3-[(14<I>Z</I>)-13,18-bis(2-amino-2-oxo-ethyl)-3,12,17-tris(2-carboxyethyl)-2-(carboxymethyl)-3,5,8,8,13,15,18,19-octamethyl-1,2,5,6,7,10,12,17-octahydrocorrin-7-yl]propanoic acid;cobalt"
InChI=1S/CHNO/c2-1-3/h3H,XLJMAIOERFSOGZ-UHFFFAOYSA-N,OC#N,C9H10O3,43.024998,-0.3690,0,38.00,0,164.71323,0,cyanic acid
InChI=1S/C7H5NO3/c9-5-6-1-3-7(4-2-6)8(10)11/h1-5H,BXRFQSNOROATLV-UHFFFAOYSA-N,O=Cc1ccc([N+](=O)[O-])cc1,C9H8O2,151.121,1.7680,2,135.00,0,147.70073,1,4-nitrobenzaldehyde
"InChI=1S/C6H6O4/c7-5(8)3-4-1-2-6(9)10-4/h1-2,4H,3H2,(H,7,8)",HPEKPJGPWNSAAV-UHFFFAOYSA-N,O1C(C=CC1=O)CC(O)=O,C10H11ClO3,142.11,0.0650,2,119.38,0,183.15027,1,2-(5-oxo-2<I>H</I>-furan-2-yl)acetic acid
"InChI=1S/C7H6O6/c8-4(9)3-7(6(11)12)2-1-5(10)13-7/h1-2H,3H2,(H,8,9)(H,11,12)",DHCUIDTZCMREHG-UHFFFAOYSA-N,O1C(C=CC1=O)(CC(O)=O)C(O)=O,C10H11N3O3S,186.11899,-0.3640,3,134.50,0,237.85225,0,2-(carboxymethyl)-5-oxo-furan-2-carboxylic acid
InChI=1S/AsO3/c2-1(3)4/q-3,OWTFKEBRIAXSMO-UHFFFAOYSA-N,[As]([O-])([O-])[O-],C10H12O3,122.919,0.3880,0,45.25,0,187.59062,1,trioxidoarsane
InChI=1S/AsH3O3/c2-1(3)4/h2-4H,GCPXMJHSNVMWNM-UHFFFAOYSA-N,[As](O)(O)O,C12H7Cl3O2,125.94299,-1.0340,0,45.25,0,205.42816,0,arsorous acid
"InChI=1S/C2H5O5P/c3-2(4)1-8(5,6)7/h1H2,(H,3,4)(H2,5,6,7)",XUYJLQHKOGNDPB-UHFFFAOYSA-N,P(O)(O)(=O)CC(O)=O,C13H10N2O3S,140.03101,-1.9280,2,82.50,0,228.74147,1,2-phosphonoacetic acid
"InChI=1S/C8H8O4/c9-6-2-1-5(3-7(6)10)4-8(11)12/h1-3,9-10H,4H2,(H,11,12)",CFFZDZCDUFSOFZ-UHFFFAOYSA-N,Oc1cc(ccc1O)CC(O)=O,C13H18O2,168.14799,1.0900,2,142.13,0,191.59531,1,"2-(3,4-dihydroxyphenyl)acetic acid"
"InChI=1S/C8H8O6/c9-4-5(3-7(11)12)1-2-6(10)8(13)14/h1-2,4,9H,3H2,(H,11,12)(H,13,14)",JCYNPXMAUUAOMA-UHFFFAOYSA-N,OC(=O)C(=O)C=CC(CC(O)=O)=CO,C13H9Cl3N2O,200.146,-0.6170,5,163.38,0,261.64728,0,"(<I>E</I>,5<I>Z</I>)-5-(hydroxymethylene)-2-oxo-hept-3-enedioic acid"
"InChI=1S/C8H8O7/c9-5(8(14)15)2-1-4(7(12)13)3-6(10)11/h1-2,12-13H,3H2,(H,10,11)(H,14,15)",OREOUSGODLITNB-UHFFFAOYSA-N,OC(=O)C(=O)C=CC(CC(O)=O)=C(O)O,C14H12O3,216.14499,-0.1620,5,168.75,0,301.62631,1,(<I>E</I>)-5-(dihydroxymethylene)-2-oxo-hept-3-enedioic acid
"InChI=1S/C8H8O7/c9-5(8(14)15)2-1-4(7(12)13)3-6(10)11/h1-2,4H,3H2,(H,10,11)(H,12,13)(H,14,15)",WHGVLEMQINVDLH-UHFFFAOYSA-N,OC(=O)C(\C=C\C(=O)C(O)=O)CC(O)=O,C15H12N2O,216.14499,-0.9630,6,168.75,0,319.32883,0,"(<I>E</I>)-5-oxopent-3-ene-1,2,5-tricarboxylic acid"
"InChI=1S/C7H8O5/c8-5(7(11)12)3-1-2-4-6(9)10/h1-3,8H,4H2,(H,9,10)(H,11,12)",ZBCBETMBSDTINL-UHFFFAOYSA-N,OC(=CC=CCC(O)=O)C(O)=O,C4H4KNO4S,172.136,0.4470,4,143.88,0,248.67409,1,"(2<I>Z</I>,4<I>E</I>)-2-hydroxyhepta-2,4-dienedioic acid"
"InChI=1S/C7H10O6/c8-4(1-2-6(10)11)3-5(9)7(12)13/h4,8H,1-3H2,(H,10,11)(H,12,13)",HNOAJOYERZTSNK-UHFFFAOYSA-N,OC(CC(=O)C(O)=O)CCC(O)=O,C7H6O3,190.151,-1.1000,6,148.50,0,255.87244,1,4-hydroxy-2-oxo-heptanedioic acid
"InChI=1S/C7H13NO2/c1-8(2)5-3-4-6(8)7(9)10/h6H,3-5H2,1-2H3",CMUNUTVVOOHQPW-UHFFFAOYSA-N,O=C([O-])C1[N+](CCC1)(C)C,C7H8N4O2,143.18599,0.1250,1,124.88,0,113.74024,0,"1,1-dimethylpyrrolidin-1-ium-2-carboxylate"
"InChI=1S/C7H13NO2/c1-8(2)5-3-4-6(8)7(9)10/h6H,3-5H2,1-2H3/p+1",CMUNUTVVOOHQPW-UHFFFAOYSA-O,OC(=O)C1[N+](CCC1)(C)C,C8H10N4O2,144.194,0.0040,1,124.88,0,119.74571,1,"1,1-dimethylpyrrolidin-1-ium-2-carboxylic acid"
"InChI=1S/C9H13NO6/c11-5-1-2-6(9(15)16)10-7(12)3-4-8(13)14/h5-6H,1-4H2,(H,10,12)(H,13,14)(H,15,16)",XTOKIEIBKARFSZ-UHFFFAOYSA-N,OC(=O)C(NC(=O)CCC(O)=O)CCC=O,C8H14ClN5,231.20399,-0.9910,9,189.50,0,264.96295,0,2-(3-carboxypropanoylamino)-5-oxo-pentanoic acid
"InChI=1S/C6H11NO2/c1-7-4-2-3-5(7)6(8)9/h5H,2-4H2,1H3,(H,8,9)",CWLQUGTUXBXTLF-UHFFFAOYSA-N,OC(=O)C1N(CCC1)C,C8H8O3,129.159,0.3250,1,118.13,0,117.82895,1,1-methylpyrrolidine-2-carboxylic acid
"InChI=1S/C6H11N3O3/c7-6(8)9-3-1-2-4(10)5(11)12/h1-3H2,(H,11,12)(H4,7,8,9)",ARBHXJXXVVHMET-UHFFFAOYSA-N,OC(=O)C(=O)CCCNC(N)=N,C8H9NO2,173.172,-0.8020,6,145.25,0,244.19391,1,5-guanidino-2-oxo-pentanoic acid
"InChI=1S/C5H11N3O/c6-5(7)8-3-1-2-4-9/h4H,1-3H2,(H4,6,7,8)",VCOFTLCIPLEZKE-UHFFFAOYSA-N,O=CCCCNC(N)=N,C9H10O3,129.16299,-0.1070,5,117.75,0,177.20929,0,1-(4-oxobutyl)guanidine
"InChI=1S/C6H10O6/c7-2-4(9)6(12)3(8)1-5(10)11/h3,6-8,12H,1-2H2,(H,10,11)",UCYNJPYWOSFBAT-UHFFFAOYSA-N,OC(C(O)CC(O)=O)C(=O)CO,C9H8O2,178.14,-2.4020,5,133.75,0,228.51367,1,"3,4,6-trihydroxy-5-oxo-hexanoic acid"
"InChI=1S/C6H11O6PS/c1-14-3-2-5(7)6(8)4-12-13(9,10)11/h2-4H2,1H3,(H2,9,10,11)",HKEAOVFNWRDVAJ-UHFFFAOYSA-N,S(CCC(=O)C(=O)COP(O)(O)=O)C,C10H11ClO3,242.188,-1.5390,7,170.75,0,288.03793,0,"(5-methylsulfanyl-2,3-dioxo-pentyl) dihydrogen phosphate"
"InChI=1S/C6H10O3S/c1-10-3-2-5(8)6(9)4-7/h4,7,9H,2-3H2,1H3",CILXJJLQPTUUSS-UHFFFAOYSA-N,S(CCC(=O)C(O)=CO)C,C10H11N3O3S,162.209,0.1360,4,136.00,0,188.25426,1,"(<I>Z</I>)-1,2-dihydroxy-5-methylsulfanyl-pent-1-en-3-one"
"InChI=1S/C4H8O2S/c1-7-3-2-4(5)6/h2-3H2,1H3,(H,5,6)",CAOMCZAIALVUPA-UHFFFAOYSA-N,S(CCC(O)=O)C,C10H12O3,120.172,0.4370,3,98.50,0,167.57573,1,3-methylsulfanylpropanoic acid
"InChI=1S/C6H13NO2/c7-5-3-1-2-4-6(8)9/h1-5,7H2,(H,8,9)",SLXKOJJOQWFEFD-UHFFFAOYSA-N,OC(=O)CCCCCN,C12H7Cl3O2,131.175,0.2930,5,120.63,0,173.32494,0,6-aminohexanoic acid
"InChI=1S/C6H5.C2H4O2.Hg/c1-2-4-6-5-3-1;1-2(3)4;/h1-5H;1H3,(H,3,4);",VZMLVEGOODGDCT-UHFFFAOYSA-N,[Hg]c1ccccc1.OC(=O)C,C13H10N2O3S,337.75,1.5520,0,146.50,0,106.09602,1,acetic acid;phenylmercury
InChI=1S/C6H5.Hg/c1-2-4-6-5-3-1;/h1-5H;,DCNLOVYDMCVNRZ-UHFFFAOYSA-N,[Hg]c1ccccc1,C13H18O2,277.698,1.5690,0,101.00,0,0,0,phenylmercury
InChI=1S/C12H8O/c1-3-7-11-9(5-1)10-6-2-4-8-12(10)13-11/h1-8H,TXCDCPKCNAJMEE-UHFFFAOYSA-N,o1c2c(c3c1cccc3)cccc2,C13H9Cl3N2O,168.19499,3.6080,0,170.63,0,12.650869,1,dibenzofuran
"InChI=1S/C12H10O3/c13-10-6-2-1-4-8(10)9-5-3-7-11(14)12(9)15/h1-7,13-15H",USBNIYMZDQVDSO-UHFFFAOYSA-N,Oc1c(cccc1O)-c1ccccc1O,C14H12O3,202.209,2.9360,1,189.38,0,107.83048,1,"3-(2-hydroxyphenyl)benzene-1,2-diol"
"InChI=1S/C12H10O4/c13-10(9-5-2-1-3-6-9)7-4-8-11(14)12(15)16/h1-8,13H,(H,15,16)",YOVXRIACERVBAG-UHFFFAOYSA-N,OC(=CC=CC(=O)C(O)=O)c1ccccc1,C15H12N2O,218.20799,2.1970,4,205.63,0,179.60963,0,"(3<I>E</I>,5<I>Z</I>)-6-hydroxy-2-oxo-6-phenyl-hexa-3,5-dienoic acid"
"InChI=1S/C12H21NO4S2/c13-10(14)4-2-1-3-9(7-8-18)19-12(17)6-5-11(15)16/h9,18H,1-8H2,(H2,13,14)(H,15,16)",RJCJWONCSKSHES-UHFFFAOYSA-N,S(C(CCCCC(=O)N)CCS)C(=O)CCC(O)=O,C4H4KNO4S,307.435,1.5750,12,255.25,0,307.49033,1,4-[6-amino-6-oxo-1-(2-sulfanylethyl)hexyl]sulfanyl-4-oxo-butanoic acid