InChI,Key,smiles,Formula,Weight,logP(o/w),b_rotN,vol,lip_violation,ASA_P,Natural,ChemicalName
"InChI=1S/C8H14N3O7P/c9-5-1-10-3-11(5)8-7(13)6(12)4(18-8)2-17-19(14,15)16/h1,3-4,6-8,12-13H,2,9H2,(H2,14,15,16)",PDACUKOKVHBVHJ-UHFFFAOYSA-N,P(OCC1OC(n2cncc2N)C(O)C1O)(O)(O)=O,C8H8O3,295.18799,-3.0780,4,208.75,1,277.3143,0,"[5-(5-aminoimidazol-1-yl)-3,4-dihydroxy-tetrahydrofuran-2-yl]methyl dihydrogen phosphate"
"InChI=1S/C8H16N3O8P/c9-5(1-10-3-12)11-8-7(14)6(13)4(19-8)2-18-20(15,16)17/h3-4,6-8,13-14H,1-2H2,(H2,9,11)(H,10,12)(H2,15,16,17)",PMCOGCVKOAOZQM-UHFFFAOYSA-N,P(OCC1OC(N=C(N)CNC=O)C(O)C1O)(O)(O)=O,C8H9NO2,313.203,-4.1300,7,222.00,2,362.28143,1,"[5-[(Z)-(1-amino-2-formamido-ethylidene)amino]-3,4-dihydroxy-tetrahydrofuran-2-yl]methyl dihydrogen phosphate"
"InChI=1S/C5H6N4O3/c6-5(12)9-3-2(4(10)11)7-1-8-3/h1H,(H,7,8)(H,10,11)(H3,6,9,12)",PQSKWIHIUOGLHX-UHFFFAOYSA-N,OC(=O)c1nc[nH]c1NC(=O)N,C9H10O3,170.12799,-1.9030,3,133.88,0,249.58806,1,5-ureido-1<I>H</I>-imidazole-4-carboxylic acid
"InChI=1S/C6H8N4/c1-2-9-6-5(8-1)3-7-4-10-6/h3-4,8H,1-2H2,(H,7,9,10)",IDAICLIJTRXNER-UHFFFAOYSA-N,n1c2NCCNc2cnc1,C9H8O2,136.158,-1.1260,0,125.50,0,151.51527,0,"5,6,7,8-tetrahydropteridine"
"InChI=1S/C6H10O7/c7-1-2(8)3(9)4(10)5(11)6(12)13/h3-5,7,9-11H,1H2,(H,12,13)",IZSRJDGCGRAUAR-UHFFFAOYSA-N,OC(C(O)C(=O)CO)C(O)C(O)=O,C10H11ClO3,194.13899,-3.0630,5,141.13,0,275.1817,1,"2,3,4,6-tetrahydroxy-5-oxo-hexanoic acid"
"InChI=1S/C20H32O5/c1-2-3-6-9-15(21)12-13-17-16(18(22)14-19(17)23)10-7-4-5-8-11-20(24)25/h4,7,12-13,15-17,19,21,23H,2-3,5-6,8-11,14H2,1H3,(H,24,25)",XEYBRNLFEZDVAW-UHFFFAOYSA-N,OC1CC(=O)C(CC=CCCCC(O)=O)C1C=CC(O)CCCCC,C10H11N3O3S,352.47098,2.1050,12,334.75,0,238.7464,0,(<I>E</I>)-7-[3-hydroxy-2-[(<I>E</I>)-3-hydroxyoct-1-enyl]-5-oxo-cyclopentyl]hept-5-enoic acid
"InChI=1S/C20H32O5/c1-2-3-4-7-14(21)10-11-16-17-12-15(8-5-6-9-20(23)24)25-19(17)13-18(16)22/h8,10-11,14,16-19,21-22H,2-7,9,12-13H2,1H3,(H,23,24)",KAQKFAOMNZTLHT-UHFFFAOYSA-N,O1C2C(CC1=CCCCC(O)=O)C(C=CC(O)CCCCC)C(O)C2,C10H12O3,352.47098,3.0500,10,329.25,0,169.01376,1,"(5<I>Z</I>)-5-[5-hydroxy-4-[(<I>E</I>)-3-hydroxyoct-1-enyl]-3,3<I>a</I>,4,5,6,6<I>a</I>-hexahydrocyclopenta[b]furan-2-ylidene]pentanoic acid"
"InChI=1S/C20H34O5/c1-2-3-6-9-15(21)12-13-17-16(18(22)14-19(17)23)10-7-4-5-8-11-20(24)25/h4,7,12-13,15-19,21-23H,2-3,5-6,8-11,14H2,1H3,(H,24,25)",PXGPLTODNUVGFL-UHFFFAOYSA-N,OC1CC(O)C(C=CC(O)CCCCC)C1CC=CCCCC(O)=O,C12H7Cl3O2,354.487,2.6730,12,334.75,0,235.96439,1,"(<I>E</I>)-7-[3,5-dihydroxy-2-[(<I>E</I>)-3-hydroxyoct-1-enyl]cyclopentyl]hept-5-enoic acid"
"InChI=1S/C9H18N5O13P3/c10-9-13-7-5(8(17)14-9)12-3(1-11-7)6(16)4(15)2-25-29(21,22)27-30(23,24)26-28(18,19)20/h4-7,11,15-16H,1-2H2,(H,21,22)(H,23,24)(H2,18,19,20)(H3,10,13,14,17)",NTKATOSHVDZIIF-UHFFFAOYSA-N,P(OCC(O)C(O)C1=NC2C(N=C(NC2=O)N)NC1)(OP(OP(O)(O)=O)(O)=O)(O)=O,C13H10N2O3S,497.18698,-6.5580,9,301.63,2,542.37421,0,"[[3-(2-amino-4-oxo-4<I>a</I>,7,8,8<I>a</I>-tetrahydro-3<I>H</I>-pteridin-6-yl)-2,3-dihydroxy-propoxy]-hydroxy-phosphoryl] phosphono hydrogen phosphate"
"InChI=1S/C8H12N2O3S/c1-8(2)4(7(12)13)10-5(11)3(9)6(10)14-8/h3-4,6H,9H2,1-2H3,(H,12,13)",NGHVIOIJCVXTGV-UHFFFAOYSA-N,S1C2N(C(C(O)=O)C1(C)C)C(=O)C2N,C13H18O2,216.261,-0.2940,1,162.50,0,228.04167,1,"6-amino-3,3-dimethyl-7-oxo-4-thia-1-azabicyclo[3.2.0]heptane-2-carboxylic acid"
"InChI=1S/C28H46N7O19P3S/c1-28(2,23(41)26(42)31-9-8-17(36)30-10-11-58-19(39)7-5-3-4-6-18(37)38)13-51-57(48,49)54-56(46,47)50-12-16-22(53-55(43,44)45)21(40)27(52-16)35-15-34-20-24(29)32-14-33-25(20)35/h 14-16,21-23,27,40-41H,3-13H2,1-2H3,(H,30,36)(H,31,42)(H",LYCRXMTYUZDUGA-UHFFFAOYSA-N,S(C(=O)CCCCCC(O)=O)CCNC(=O)CCNC(=O)C(O)C(COP(OP(OCC1OC(n2c3ncnc(N)c3nc2)C(O)C1OP(O)(O)=O)(O)=O)(O)=O)(C)C,C13H9Cl3N2O,909.69397,-4.1519,28,651.38,3,688.01923,0,"7-[2-[3-[[4-[[[5-(6-aminopurin-9-yl)-4-hydroxy-3-phosphonooxy-tetrahydrofuran-2-yl]methoxy-hydroxy-phosphoryl]oxy-hydroxy-phosphoryl]oxy-2-hydroxy-3,3-dimethyl-butanoyl]amino]propanoylamino]ethylsulfa nyl]-7-oxo-heptanoic acid"
"InChI=1S/C6H9N3O3/c7-5(6(11)12)2-1-4(10)3-9-8/h3,5H,1-2,7H2,(H-,10,11,12)",MKZFABOMIIHLIT-UHFFFAOYSA-N,OC(=O)C(N)CCC([O-])=C[N+]#N,C14H12O3,171.15599,-3.4637,5,144.75,0,243.41344,1,(<I>Z</I>)-5-amino-1-diazonio-6-hydroxy-6-oxo-hex-1-en-2-olate
"InChI=1S/C6H9N3O3/c7-5(6(11)12)2-1-4(10)3-9-8/h3,5H,1-2,7H2,(H-,10,11,12)/p+1",MKZFABOMIIHLIT-UHFFFAOYSA-O,OC(CCC(N)C(O)=O)=C[N+]#N,C15H12N2O,172.164,-3.5847,5,144.75,0,250.2218,1,"(<I>Z</I>)-5-amino-2,6-dihydroxy-6-oxo-hex-1-ene-1-diazonium"
"InChI=1S/C9H13N5O3/c1-3(15)6(16)4-2-11-7-5(12-4)8(17)14-9(10)13-7/h4-5,7,11-12H,2H2,1H3,(H3,10,13,14,17)",UTKFFKGIGIRCRY-UHFFFAOYSA-N,O=C1NC(=NC2NCC(NC12)C(=O)C(=O)C)N,C4H4KNO4S,239.235,-2.7070,2,192.88,0,275.98413,0,"1-(2-amino-4-oxo-4<I>a</I>,5,6,7,8,8<I>a</I>-hexahydro-3<I>H</I>-pteridin-6-yl)propane-1,2-dione"
"InChI=1S/C6H6N4/c1-2-9-6-5(8-1)3-7-4-10-6/h3-4H,1-2H2",KVDQMARGGBLIJM-UHFFFAOYSA-N,N1=C2C(=NCC1)N=CN=C2,C7H6O3,134.142,-1.0950,0,125.50,0,171.58955,1,"6,7-dihydropteridine"
"InChI=1S/C12H23O14P/c13-1-3-10(7(16)8(17)11(19)24-3)26-12-9(18)6(15)5(14)4(25-12)2-23-27(20,21)22/h3-19H,1-2H2,(H2,20,21,22)",ITPHOIFCAFNCLL-UHFFFAOYSA-N,P(OCC1OC(OC2C(O)C(O)C(OC2CO)O)C(O)C(O)C1O)(O)(O)=O,C7H8N4O2,422.276,-5.7350,6,278.13,2,398.93198,0,"[3,4,5-trihydroxy-6-[4,5,6-trihydroxy-2-(hydroxymethyl)tetrahydropyran-3-yl]oxy-tetrahydropyran-2-yl]methyl dihydrogen phosphate"
"InChI=1S/C20H32O4/c1-2-3-4-5-6-9-13-18(21)14-10-7-8-11-15-19(22)16-12-17-20(23)24/h6-11,14-15,18-19,21-22H,2-5,12-13,16-17H2,1H3,(H,23,24)",VNYSSYRCGWBHLG-UHFFFAOYSA-N,OC(CCCC(O)=O)C=CC=CC=CC(O)CC=CCCCCC,C8H10N4O2,336.47198,4.2120,14,337.00,0,197.13771,1,"(6<I>E</I>,8<I>E</I>,10<I>E</I>,14<I>E</I>)-5,12-dihydroxyicosa-6,8,10,14-tetraenoic acid"
"InChI=1S/C14H14N6O3/c15-14-19-11-10(12(21)20-14)18-9(6-17-11)5-16-8-3-1-7(2-4-8)13(22)23/h1-4,16H,5-6H2,(H,22,23)(H4,15,17,19,20,21)",WBFYVDCHGVNRBH-UHFFFAOYSA-N,O=C1NC(=NC=2NCC(=NC1=2)CNc1ccc(cc1)C(O)=O)N,C8H14ClN5,314.30499,-0.3690,4,270.38,1,337.14557,1,"4-[(2-amino-4-oxo-7,8-dihydro-3<I>H</I>-pteridin-6-yl)methylamino]benzoic acid"
"InChI=1S/C7H9N5O/c8-1-3-2-10-5-4(3)6(13)12-7(9)11-5/h2H,1,8H2,(H4,9,10,11,12,13)",MEYMBLGOKYDGLZ-UHFFFAOYSA-N,O=C1NC(=Nc2[nH]cc(c12)CN)N,C8H8O3,179.183,-0.9970,1,151.63,1,282.9454,0,"2-amino-5-(aminomethyl)-3,7-dihydropyrrolo[2,3-d]pyrimidin-4-one"
"InChI=1S/C27H44O/c1-18(2)7-6-8-19(3)23-11-12-24-22-10-9-20-17-21(28)13-15-26(20,4)25(22)14-16-27(23,24)5/h9-10,18-19,21,23-25,28H,6-8,11-17H2,1-5H3",UCTLRSWJYQTBFZ-UHFFFAOYSA-N,OC1CC2=CC=C3C4CCC(C(CCCC(C)C)C)C4(CCC3C2(CC1)C)C,C8H9NO2,384.64798,6.7760,5,359.00,1,40.972267,1,"17-(1,5-dimethylhexyl)-10,13-dimethyl-2,3,4,9,11,12,14,15,16,17-decahydro-1<I>H</I>-cyclopenta[a]phenanthren-3-ol"
"InChI=1S/C9H17NO3/c1-7(10)8(11)5-3-2-4-6-9(12)13/h7H,2-6,10H2,1H3,(H,12,13)",GUAHPAJOXVYFON-UHFFFAOYSA-N,OC(=O)CCCCCC(=O)C(N)C,C9H10O3,187.239,0.3980,7,173.25,0,176.24644,0,8-amino-7-oxo-nonanoic acid
"InChI=1S/C2H4O2/c1-2(3)4/h1H3,(H,3,4)/p-1",QTBSBXVTEAMEQO-UHFFFAOYSA-M,O=C([O-])C,C9H8O2,59.043999,0.0420,0,54.25,0,104.43519,1,acetate
"InChI=1S/C2H4O2/c1-2(3)4/h1H3,(H,3,4)",QTBSBXVTEAMEQO-UHFFFAOYSA-N,OC(=O)C,C10H11ClO3,60.051998,-0.0790,0,54.25,0,108.58579,1,acetic acid
"InChI=1S/C2H4O/c1-2-3/h2H,1H3",IKHGUXGNUITLKF-UHFFFAOYSA-N,O=CC,C10H11N3O3S,44.052998,0.1710,0,47.63,0,71.185326,0,acetaldehyde
"InChI=1S/C2H5NO/c1-2(3)4/h1H3,(H2,3,4)",DLFVBJFMPXGRIB-UHFFFAOYSA-N,O=C(N)C,C10H12O3,59.068001,-0.8130,0,56.25,0,121.04873,1,acetamide
InChI=1S/C3H6O/c1-3(2)4/h1-2H3,CSCPPACGZOOCGX-UHFFFAOYSA-N,O=C(C)C,C12H7Cl3O2,58.079998,0.0970,0,63.50,0,47.041477,0,acetone
"InChI=1S/C23H38N7O17P3S/c1-12(31)51-7-6-25-14(32)4-5-26-21(35)18(34)23(2,3)9-44-50(41,42)47-49(39,40)43-8-13-17(46-48(36,37)38)16(33)22(45-13)30-11-29-15-19(24)27-10-28-20(15)30/h10-11,13,16-18,22,33- 34H,4-9H2,1-3H3,(H,25,32)(H,26,35)(H,39,40)(H,41,42)(H2",ZSLZBFCDCINBPY-UHFFFAOYSA-N,S(C(=O)C)CCNC(=O)CCNC(=O)C(O)C(COP(OP(OCC1OC(n2c3ncnc(N)c3nc2)C(O)C1OP(O)(O)=O)(O)=O)(O)=O)(C)C,C13H10N2O3S,809.57697,-5.0329,22,567.88,3,657.03802,1,"<I>S</I>-[2-[3-[[4-[[[5-(6-aminopurin-9-yl)-4-hydroxy-3-phosphonooxy-tetrahydrofuran-2-yl]methoxy-hydroxy-phosphoryl]oxy-hydroxy-phosphoryl]oxy-2-hydroxy-3,3-dimethyl-butanoyl]amino]propanoylamino]eth yl] ethanethioate"
"InChI=1S/C63H105NO12P2/c1-47(2)24-14-25-48(3)26-15-27-49(4)28-16-29-50(5)30-17-31-51(6)32-18-33-52(7)34-19-35-53(8)36-20-37-54(9)38-21-39-55(10)40-22-41-56(11)42-23-43-57(12)44-45-73-77(69,70)76-78(71 ,72)75-63-60(64-58(13)66)62(68)61(67)59(46-65)74-63/h24",NEVJGTXBHJNFAZ-UHFFFAOYSA-N,P(OC1OC(CO)C(O)C(O)C1NC(=O)C)(OP(OCC=C(CCC=C(CCC=C(CCC=C(CCC=C(CCC=C(CCC=C(CCC=C(CCC=C(CCC=C(CCC=C(C)C)C)C)C)C)C)C)C)C)C)C)(O)=O)(O)=O,C13H18O2,1130.476,5.1430,40,1069.75,4,333.06094,1,"[3-acetamido-4,5-dihydroxy-6-(hydroxymethyl)tetrahydropyran-2-yl] [hydroxy-[(2<I>E</I>,6<I>E</I>,10<I>E</I>,14<I>E</I>,18<I>Z</I>,22<I>E</I>,26<I>E</I>,30<I>E</I>,34<I>E</I>,38<I>E</I>)-3,7,11,15,19,2 3,27,31,35,39,43-undecamethyltetratetraconta-2,6,10,14,18,22,26,30,34,38,42-undecaenoxy]phosphoryl] hydrogen phosphate"
"InChI=1S/C71H118N2O17P2/c1-49(2)25-15-26-50(3)27-16-28-51(4)29-17-30-52(5)31-18-32-53(6)33-19-34-54(7)35-20-36-55(8)37-21-38-56(9)39-22-40-57(10)41-23-42-58(11)43-24-44-59(12)45-46-85-91(81,82)90-92(8 3,84)89-71-65(73-61(14)77)68(80)69(63(48-75)87-71)88-70",CALMUTCFVFZDOC-UHFFFAOYSA-N,P(OC1OC(CO)C(OC2OC(CO)C(O)C(O)C2NC(=O)C)C(O)C1NC(=O)C)(OP(OCC=C(CCC=C(CCC=C(CCC=C(CCC=C(CCC=C(CCC=C(CCC=C(CCC=C(CCC=C(CCC=C(C)C)C)C)C)C)C)C)C)C)C)C)(O)=O)(O)=O,C13H9Cl3N2O,1333.6699,3.1740,45,1210.00,4,439.95517,0,"[3-acetamido-5-[3-acetamido-4,5-dihydroxy-6-(hydroxymethyl)tetrahydropyran-2-yl]oxy-4-hydroxy-6-(hydroxymethyl)tetrahydropyran-2-yl] [hydroxy-[(2<I>E</I>,6<I>Z</I>,10<I>E</I>,14<I>E</I>,18<I>E</I>,22< I>E</I>,26<I>E</I>,30<I>E</I>,34<I>E</I>,38<I>E</I>)-3,7,11,15,19,23,27,31,35,39,43-undecamethyltetratetraconta-2,6,10,14,18,22,26,30,34,38,42-undecaenoxy]phosphoryl] hydrogen phosphate"
"InChI=1S/C12H21N3O8/c1-4(17)14-8-10(20)9(19)6(3-16)23-11(8)15-7(18)2-5(13)12(21)22/h5-6,8-11,16,19-20H,2-3,13H2,1H3,(H,14,17)(H,15,18)(H,21,22)",YTTRPBWEMMPYSW-UHFFFAOYSA-N,O1C(CO)C(O)C(O)C(NC(=O)C)C1NC(=O)CC(N)C(O)=O,C14H12O3,335.31299,-6.7647,8,257.38,2,337.59232,1,"4-[[3-acetamido-4,5-dihydroxy-6-(hydroxymethyl)tetrahydropyran-2-yl]amino]-2-amino-4-oxo-butanoic acid"
"InChI=1S/C7H11NO5/c1-4(9)8-5(7(12)13)2-3-6(10)11/h5H,2-3H2,1H3,(H,8,9)(H,10,11)(H,12,13)",RFMMMVDNIPUKGG-UHFFFAOYSA-N,OC(=O)C(NC(=O)C)CCC(O)=O,C15H12N2O,189.16699,-0.7960,6,152.25,0,245.36618,0,2-acetamidopentanedioic acid
"InChI=1S/C2H5O5P/c1-2(3)7-8(4,5)6/h1H3,(H2,4,5,6)",LIPOUNRJVLNBCD-UHFFFAOYSA-N,P(OC(=O)C)(O)(O)=O,C4H4KNO4S,140.03101,-1.3140,2,87.63,0,187.05234,1,phosphono acetate
"InChI=1S/C7H16NO2/c1-7(9)10-6-5-8(2,3)4/h5-6H2,1-4H3/q+1",OIPILFWXSMYKGL-UHFFFAOYSA-N,O(C(=O)C)CC[N+](C)(C)C,C7H6O3,146.20999,-0.2590,4,141.13,0,122.66873,1,2-acetoxyethyl(trimethyl)ammonium
"InChI=1S/C14H24O12/c1-4(17)23-13-11(22)9(20)12(6(3-16)25-13)26-14-10(21)8(19)7(18)5(2-15)24-14/h5-16,18-22H,2-3H2,1H3",QBQSGZSHVKFNMZ-UHFFFAOYSA-N,O1C(CO)C(O)C(O)C(O)C1OC1C(O)C(O)C(OC1CO)OC(=O)C,C7H8N4O2,384.33398,-4.2590,6,284.75,2,312.75909,0,"[3,4-dihydroxy-6-(hydroxymethyl)-5-[3,4,5-trihydroxy-6-(hydroxymethyl)tetrahydropyran-2-yl]oxy-tetrahydropyran-2-yl] acetate"
"InChI=1S/C5H9NO4/c1-3(7)10-2-4(6)5(8)9/h4H,2,6H2,1H3,(H,8,9)",VZXPDPZARILFQX-UHFFFAOYSA-N,O(C(=O)C)CC(N)C(O)=O,C8H10N4O2,147.12999,-3.5037,4,120.00,0,203.59683,1,3-acetoxy-2-amino-propanoic acid
"InChI=1S/C5H5N5/c6-4-3-5(9-1-7-3)10-2-8-4/h1-2H,(H3,6,7,8,9,10)",GFFGJBXGBJISGV-UHFFFAOYSA-N,[nH]1c2ncnc(N)c2nc1,C8H14ClN5,135.13,-0.9189,0,119.25,0,196.74886,0,9<I>H</I>-purin-6-amine
"InChI=1S/C10H13N5O4/c11-8-5-9(13-2-12-8)15(3-14-5)10-7(18)6(17)4(1-16)19-10/h2-4,6-7,10,16-18H,1H2,(H2,11,12,13)",OIRDTQYFTABQOQ-UHFFFAOYSA-N,O1C(CO)C(O)C(O)C1n1c2ncnc(N)c2nc1,C8H8O3,267.245,-2.3189,2,213.75,0,291.79446,1,"2-(6-aminopurin-9-yl)-5-(hydroxymethyl)tetrahydrofuran-3,4-diol"
"InChI=1S/C15H23N5O14P2/c16-12-7-13(18-3-17-12)20(4-19-7)14-10(23)8(21)5(32-14)1-30-35(26,27)34-36(28,29)31-2-6-9(22)11(24)15(25)33-6/h3-6,8-11,14-15,21-25H,1-2H2,(H,26,27)(H,28,29)(H2,16,17,18)",SRNWOUGRCWSEMX-UHFFFAOYSA-N,P(OCC1OC(n2c3ncnc(N)c3nc2)C(O)C1O)(OP(OCC1OC(O)C(O)C1O)(O)=O)(O)=O,C8H9NO2,559.31799,-5.5999,9,377.25,3,475.81503,1,"[[5-(6-aminopurin-9-yl)-3,4-dihydroxy-tetrahydrofuran-2-yl]methoxy-hydroxy-phosphoryl] (3,4,5-trihydroxytetrahydrofuran-2-yl)methyl hydrogen phosphate"
"InChI=1S/C14H20N6O5S/c15-6(14(23)24)1-2-26-3-7-9(21)10(22)13(25-7)20-5-19-8-11(16)17-4-18-12(8)20/h4-7,9-10,13,21-22H,1-3,15H2,(H,23,24)(H2,16,17,18)",ZJUKTBDSGOFHSH-UHFFFAOYSA-N,S(CC1OC(n2c3ncnc(N)c3nc2)C(O)C1O)CCC(N)C(O)=O,C9H10O3,384.41699,-4.3177,7,304.13,2,424.47406,0,"2-amino-4-[[5-(6-aminopurin-9-yl)-3,4-dihydroxy-tetrahydrofuran-2-yl]methylsulfanyl]butanoic acid"
"InChI=1S/C20H28N10O19P4/c21-15-9-17(25-3-23-15)29(5-27-9)19-13(33)11(31)7(45-19)1-43-50(35,36)47-52(39,40)49-53(41,42)48-51(37,38)44-2-8-12(32)14(34)20(46-8)30-6-28-10-16(22)24-4-26-18(10)30/h3-8,11-1 4,19-20,31-34H,1-2H2,(H,35,36)(H,37,38)(H,39,40)(H,41,4",YOAHKNVSNCMZGQ-UHFFFAOYSA-N,P(OCC1OC(n2c3ncnc(N)c3nc2)C(O)C1O)(OP(OP(OP(OCC1OC(n2c3ncnc(N)c3nc2)C(O)C1O)(O)=O)(O)=O)(O)=O)(O)=O,C9H8O2,836.39099,-7.3239,14,547.75,3,732.16089,1,"[[5-(6-aminopurin-9-yl)-3,4-dihydroxy-tetrahydrofuran-2-yl]methoxy-hydroxy-phosphoryl] [[[5-(6-aminopurin-9-yl)-3,4-dihydroxy-tetrahydrofuran-2-yl]methoxy-hydroxy-phosphoryl]oxy-hydroxy-phosphoryl] hy drogen phosphate"
"InChI=1S/C14H18N5O11P/c20-7(21)1-5(14(24)25)18-11-8-12(16-3-15-11)19(4-17-8)13-10(23)9(22)6(30-13)2-29-31(26,27)28/h3-6,9-10,13,22-23H,1-2H2,(H,20,21)(H,24,25)(H,15,16,18)(H2,26,27,28)",OFBHPPMPBOJXRT-UHFFFAOYSA-N,P(OCC1OC(n2c3ncnc(NC(CC(O)=O)C(O)=O)c3nc2)C(O)C1O)(O)(O)=O,C10H11ClO3,463.29599,-3.6679,9,332.88,2,483.71323,0,"2-[[9-[3,4-dihydroxy-5-(phosphonooxymethyl)tetrahydrofuran-2-yl]purin-6-yl]amino]butanedioic acid"
"InChI=1S/C6H10O4/c7-5(8)3-1-2-4-6(9)10/h1-4H2,(H,7,8)(H,9,10)",WNLRTRBMVRJNCN-UHFFFAOYSA-N,OC(=O)CCCCC(O)=O,C10H11N3O3S,146.142,0.3600,5,124.38,0,190.3623,1,adipic acid
"InChI=1S/C10H15N5O10P2/c11-8-5-9(13-2-12-8)15(3-14-5)10-7(17)6(16)4(24-10)1-23-27(21,22)25-26(18,19)20/h2-4,6-7,10,16-17H,1H2,(H,21,22)(H2,11,12,13)(H2,18,19,20)",XTWYTFMLZFPYCI-UHFFFAOYSA-N,P(OCC1OC(n2c3ncnc(N)c3nc2)C(O)C1O)(OP(O)(O)=O)(O)=O,C10H12O3,427.203,-4.0879,6,282.00,2,470.1409,1,"[5-(6-aminopurin-9-yl)-3,4-dihydroxy-tetrahydrofuran-2-yl]methyl phosphono hydrogen phosphate"
"InChI=1S/C16H25N5O15P2/c17-13-7-14(19-3-18-13)21(4-20-7)15-11(26)9(24)6(33-15)2-32-37(28,29)36-38(30,31)35-16-12(27)10(25)8(23)5(1-22)34-16/h3-6,8-12,15-16,22-27H,1-2H2,(H,28,29)(H,30,31)(H2,17,18,19)",WFPZSXYXPSUOPY-UHFFFAOYSA-N,P(OC1OC(CO)C(O)C(O)C1O)(OP(OCC1OC(n2c3ncnc(N)c3nc2)C(O)C1O)(O)=O)(O)=O,C12H7Cl3O2,589.34399,-6.1729,9,397.75,3,451.76373,0,"[[5-(6-aminopurin-9-yl)-3,4-dihydroxy-tetrahydrofuran-2-yl]methoxy-hydroxy-phosphoryl] [3,4,5-trihydroxy-6-(hydroxymethyl)tetrahydropyran-2-yl] hydrogen phosphate"
"InChI=1S/C5H14N4/c6-3-1-2-4-9-5(7)8/h1-4,6H2,(H4,7,8,9)",QYPPJABKJHAVHS-UHFFFAOYSA-N,N(CCCCN)C(N)=N,C13H10N2O3S,130.19499,-0.4240,5,120.63,1,212.6068,1,1-(4-aminobutyl)guanidine
"InChI=1S/C9H15N4O8P/c10-7-4(8(11)16)12-2-13(7)9-6(15)5(14)3(21-9)1-20-22(17,18)19/h2-3,5-6,9,14-15H,1,10H2,(H2,11,16)(H2,17,18,19)",NOTGFIUVDGNKRI-UHFFFAOYSA-N,P(OCC1OC(n2cnc(C(=O)N)c2N)C(O)C1O)(O)(O)=O,C13H18O2,338.21298,-4.1750,5,237.75,2,381.70123,0,"[5-(5-amino-4-carbamoyl-imidazol-1-yl)-3,4-dihydroxy-tetrahydrofuran-2-yl]methyl dihydrogen phosphate"
"InChI=1S/C35H60O7P2/c1-29(2)15-9-16-30(3)17-10-18-31(4)19-11-20-32(5)21-12-22-33(6)23-13-24-34(7)25-14-26-35(8)27-28-41-44(39,40)42-43(36,37)38/h15,17,19,21,23,25,27H,9-14,16,18,20,22,24,26,28H2,1-8H3 ,(H,39,40)(H2,36,37,38)",LSJLEXWXRKTZAJ-UHFFFAOYSA-N,P(OC\C=C(\CC\C=C(\CC\C=C(\CC\C=C(\CC\C=C(\CC\C=C(\CCC=C(C)C)/C)/C)/C)/C)/C)/C)(OP(O)(O)=O)(O)=O,C13H9Cl3N2O,654.80597,3.8250,23,615.25,2,298.88733,1,"[(2<I>E</I>,6<I>E</I>,10<I>E</I>,14<I>E</I>,18<I>E</I>,22<I>E</I>)-3,7,11,15,19,23,27-heptamethyloctacosa-2,6,10,14,18,22,26-heptaenyl] phosphono hydrogen phosphate"
"InChI=1S/C30H52O7P2/c1-25(2)13-8-14-26(3)15-9-16-27(4)17-10-18-28(5)19-11-20-29(6)21-12-22-30(7)23-24-36-39(34,35)37-38(31,32)33/h13,15,17,19,21,23H,8-12,14,16,18,20,22,24H2,1-7H3,(H,34,35)(H2,31,32,3 3)",NGFSMHKFTZROKJ-UHFFFAOYSA-N,P(OC\C=C(\CC\C=C(\CC\C=C(\CC\C=C(\CC\C=C(\CCC=C(C)C)/C)/C)/C)/C)/C)(OP(O)(O)=O)(O)=O,C14H12O3,586.68701,2.9610,20,538.50,2,284.42371,1,"[(2<I>E</I>,6<I>E</I>,10<I>E</I>,14<I>E</I>,18<I>E</I>)-3,7,11,15,19,23-hexamethyltetracosa-2,6,10,14,18,22-hexaenyl] phosphono hydrogen phosphate"
"InChI=1S/C4H8N4O4/c5-3(11)7-1(2(9)10)8-4(6)12/h1H,(H,9,10)(H3,5,7,11)(H3,6,8,12)",NUCLJNSWZCHRKL-UHFFFAOYSA-N,OC(=O)C(NC(=O)N)NC(=O)N,C15H12N2O,176.132,-2.9250,5,126.63,1,336.96054,0,"2,2-diureidoacetic acid"
"InChI=1S/C4H6N4O3/c5-3(10)6-1-2(9)8-4(11)7-1/h1H,(H3,5,6,10)(H2,7,8,9,11)",POJWUDADGALRAB-UHFFFAOYSA-N,O=C1NC(=O)NC1NC(=O)N,C4H4KNO4S,158.117,-2.5750,2,118.75,0,284.39276,1,"(2,5-dioxoimidazolidin-4-yl)urea"
"InChI=1S/C4H9NO3/c1-2(6)3(5)4(7)8/h2-3,6H,5H2,1H3,(H,7,8)",AYFVYJQAPQTCCC-UHFFFAOYSA-N,OC(C(N)C(O)=O)C,C7H6O3,119.12,-3.6307,2,94.50,0,173.2049,0,2-amino-3-hydroxy-butanoic acid
"InChI=1S/C6H12O6/c7-1-2-3(8)4(9)5(10)6(11)12-2/h2-11H,1H2",WQZGKKKJIJFFOK-UHFFFAOYSA-N,O1C(CO)C(O)C(O)C(O)C1O,C7H8N4O2,180.15599,-2.9320,1,128.13,0,221.71112,1,"6-(hydroxymethyl)tetrahydropyran-2,3,4,5-tetrol"
"InChI=1S/C6H11NO3/c7-5(6(9)10)3-1-2-4-8/h4-5H,1-3,7H2,(H,9,10)",GFXYTQPNNXGICT-UHFFFAOYSA-N,O=C([O-])C([NH3+])CCCC=O,C8H10N4O2,145.15799,-0.1520,5,124.88,0,163.94675,1,2-azaniumyl-6-oxo-hexanoate
"InChI=1S/C6H13O9P/c7-3-2(1-14-16(11,12)13)15-6(10)5(9)4(3)8/h2-10H,1H2,(H2,11,12,13)",NBSCHQHZLSJFNQ-UHFFFAOYSA-N,P(OCC1OC(O)C(O)C(O)C1O)(O)(O)=O,C8H14ClN5,260.13501,-3.8190,3,165.63,1,327.15427,0,"(3,4,5,6-tetrahydroxytetrahydropyran-2-yl)methyl dihydrogen phosphate"
"InChI=1S/C39H64N6O26/c1-11(50)41-15(34(40)62)5-21(56)45-35-23(43-13(3)52)27(59)30(19(9-48)65-35)68-36-24(44-14(4)53)28(60)31(20(10-49)67-36)69-37-29(61)33(26(58)18(8-47)66-37)71-39(38(63)64)6-16(54)22 (42-12(2)51)32(70-39)25(57)17(55)7-46/h15-20,22-33,35-3",ZTGNGDIIWOADCE-UHFFFAOYSA-N,O1C(CO)C(OC2OC(CO)C(OC3OC(CO)C(O)C(OC4(OC(C(O)C(O)CO)C(NC(=O)C)C(O)C4)C(O)=O)C3O)C(O)C2NC(=O)C)C(O)C(NC(=O)C)C1NC(=O)CC(NC(=O)C)C(=O)N,C8H8O3,1032.957,-10.8080,26,729.88,3,668.62585,1,"5-acetamido-2-[2-[5-acetamido-6-[5-acetamido-6-[(3-acetamido-4-amino-4-oxo-butanoyl)amino]-4-hydroxy-2-(hydroxymethyl)tetrahydropyran-3-yl]oxy-4-hydroxy-2-(hydroxymethyl)tetrahydropyran-3-yl]oxy-3,5-d ihydroxy-6-(hydroxymethyl)tetrahydropyran-4-yl]oxy-4-hydroxy-6-(1,2,3-trihydroxypropyl)tetrahydropyran-2-carboxylic acid"
"InChI=1S/C25H42N2O19/c1-7(30)26-13-9(32)3-25(24(40)41,46-21(13)15(34)10(33)4-28)42-6-12-16(35)18(37)19(38)23(44-12)45-20-11(5-29)43-22(39)14(17(20)36)27-8(2)31/h9-23,28-29,32-39H,3-6H2,1-2H3,(H,26,30) (H,27,31)(H,40,41)",RPSBVJXBTXEJJG-UHFFFAOYSA-N,O1C(CO)C(OC2OC(COC3(OC(C(O)C(O)CO)C(NC(=O)C)C(O)C3)C(O)=O)C(O)C(O)C2O)C(O)C(NC(=O)C)C1O,C8H9NO2,674.60596,-6.8930,14,487.88,3,471.11414,0,"5-acetamido-2-[[6-[5-acetamido-4,6-dihydroxy-2-(hydroxymethyl)tetrahydropyran-3-yl]oxy-3,4,5-trihydroxy-tetrahydropyran-2-yl]methoxy]-4-hydroxy-6-(1,2,3-trihydroxypropyl)tetrahydropyran-2-carboxylic a cid"
"InChI=1S/C14H18N2O4/c1-7-3-9-10(4-8(7)2)16(6-15-9)14-13(19)12(18)11(5-17)20-14/h3-4,6,11-14,17-19H,5H2,1-2H3",HLRUKOJSWOKCPP-UHFFFAOYSA-N,O1C(CO)C(O)C(O)C1n1c2cc(C)c(cc2nc1)C,C9H10O3,278.30798,0.3910,2,245.00,0,170.46768,1,"2-(5,6-dimethylbenzimidazol-1-yl)-5-(hydroxymethyl)tetrahydrofuran-3,4-diol"
"InChI=1S/C14H19N2O7P/c1-7-3-9-10(4-8(7)2)16(6-15-9)14-13(18)12(17)11(23-14)5-22-24(19,20)21/h3-4,6,11-14,17-18H,5H2,1-2H3,(H2,19,20,21)",ZMRGXEJKZPRBPJ-UHFFFAOYSA-N,P(OCC1OC(n2c3cc(C)c(cc3nc2)C)C(O)C1O)(O)(O)=O,C9H8O2,358.28699,-0.4960,4,281.25,0,270.08209,1,"[5-(5,6-dimethylbenzimidazol-1-yl)-3,4-dihydroxy-tetrahydrofuran-2-yl]methyl dihydrogen phosphate"