InChI,Key,smiles,Formula,Weight,logP(o/w),b_rotN,vol,lip_violation,ASA_P,Natural,ChemicalName
InChI=1S/C13H10O/c14-13(11-7-3-1-4-8-11)12-9-5-2-6-10-12/h1-10H,RWCCWEUUXYIKHB-UHFFFAOYSA-N,O=C(c1ccccc1)c1ccccc1,C10H11ClO3,182.222,3.4210,2,191.38,0,32.452671,0,diphenylmethanone
"InChI=1S/C19H23NO/c1-20-14-12-18(13-15-20)21-19(16-8-4-2-5-9-16)17-10-6-3-7-11-17/h2-11,18-19H,12-15H2,1H3",OWQUZNMMYNAXSL-UHFFFAOYSA-N,O(C(c1ccccc1)c1ccccc1)C1CCN(CC1)C,C10H11N3O3S,281.39899,4.4350,4,279.13,0,34.140423,1,4-benzhydryloxy-1-methyl-piperidine
"InChI=1S/C11H18N5O12P3/c12-9-6-10(14-2-13-9)16(3-15-6)11-8(18)7(17)5(27-11)1-26-29(19,20)4-30(21,22)28-31(23,24)25/h2-3,5,7-8,11,17-18H,1,4H2,(H,19,20)(H,21,22)(H2,12,13,14)(H2,23,24,25)",CAWZRIXWFRFUQB-UHFFFAOYSA-N,P(OCC1OC(n2c3ncnc(N)c3nc2)C(O)C1O)(O)(=O)CP(OP(O)(O)=O)(O)=O,C10H12O3,505.20999,-5.3999,8,316.63,3,496.63525,1,"[5-(6-aminopurin-9-yl)-3,4-dihydroxy-tetrahydrofuran-2-yl]methoxy-[[hydroxy(phosphonooxy)phosphoryl]methyl]phosphinic acid"
"InChI=1S/C19H29NO5/c1-18(2,3)16(22)24-14-9-8-12(13(21)11-20-7)10-15(14)25-17(23)19(4,5)6/h8-10,13,20-21H,11H2,1-7H3",OCUJLLGVOUDECM-UHFFFAOYSA-N,O(C(=O)C(C)(C)C)c1cc(ccc1OC(=O)C(C)(C)C)C(O)CNC,C12H7Cl3O2,351.44299,3.1687,9,323.50,0,136.27609,0,"[2-(2,2-dimethylpropanoyloxy)-4-[1-hydroxy-2-(methylamino)ethyl]phenyl] 2,2-dimethylpropanoate"
"InChI=1S/C14H23NO2/c1-3-8-15(9-4-2)10-7-12-5-6-13(16)14(17)11-12/h5-6,11,16-17H,3-4,7-10H2,1-2H3",LMYSNFBROWBKMB-UHFFFAOYSA-N,Oc1cc(ccc1O)CCN(CCC)CCC,C13H10N2O3S,237.34299,3.3720,7,236.25,0,101.68475,1,"4-[2-(dipropylamino)ethyl]benzene-1,2-diol"
"InChI=1S/C17H31N3O4/c1-5-10(3)13(18)16(22)20-9-7-8-12(20)15(21)19-14(17(23)24)11(4)6-2/h10-14H,5-9,18H2,1-4H3,(H,19,21)(H,23,24)",JNTMAZFVYNDPLB-UHFFFAOYSA-N,OC(=O)C(NC(=O)C1N(CCC1)C(=O)C(N)C(CC)C)C(CC)C,C13H18O2,341.452,1.7350,10,309.00,0,162.74231,0,2-[[1-(2-amino-3-methyl-pentanoyl)pyrrolidine-2-carbonyl]amino]-3-methyl-pentanoic acid
"InChI=1S/C24H40N8O4/c33-15-11-31(12-16-34)23-26-20-19(21(27-23)29-7-3-1-4-8-29)25-24(32(13-17-35)14-18-36)28-22(20)30-9-5-2-6-10-30/h33-36H,1-18H2",IZEKFCXSFNUWAM-UHFFFAOYSA-N,OCCN(CCO)c1nc(N2CCCCC2)c2nc(nc(N3CCCCC3)c2n1)N(CCO)CCO,C13H9Cl3N2O,504.63599,-0.2414,12,447.63,2,239.07076,1,"2-[[2-[bis(2-hydroxyethyl)amino]-4,8-bis(1-piperidyl)pyrimido[5,4-d]pyrimidin-6-yl]-(2-hydroxyethyl)amino]ethanol"
InChI=1S/C10H8N2O2S2/c13-11-7-3-1-5-9(11)15-16-10-6-2-4-8-12(10)14/h1-8H,ZHDBTKPXEJDTTQ-UHFFFAOYSA-N,S(Sc1[n+]([O-])cccc1)c1[n+]([O-])cccc1,C14H12O3,252.31799,3.8840,3,211.88,0,41.800999,1,1-oxido-2-[(1-oxidopyridin-1-ium-2-yl)disulfanyl]pyridin-1-ium
"InChI=1S/C13H17N3O4S/c1-10-12(14(2)9-21(18,19)20)13(17)16(15(10)3)11-7-5-4-6-8-11/h4-8H,9H2,1-3H3,(H,18,19,20)/p-1",LVWZTYCIRDMTEY-UHFFFAOYSA-M,S(=O)(=O)([O-])CN(C)C=1C(=O)N(N(C)C=1C)c1ccccc1,C15H12N2O,310.354,0.2640,4,261.88,0,168.70601,0,"[(1,5-dimethyl-3-oxo-2-phenyl-pyrazol-4-yl)-methyl-amino]methanesulfonate"
"InChI=1S/C13H17N3O4S/c1-10-12(14(2)9-21(18,19)20)13(17)16(15(10)3)11-7-5-4-6-8-11/h4-8H,9H2,1-3H3,(H,18,19,20)",LVWZTYCIRDMTEY-UHFFFAOYSA-N,S(O)(=O)(=O)CN(C)C=1C(=O)N(N(C)C=1C)c1ccccc1,C4H4KNO4S,311.362,0.3140,4,261.88,0,179.31848,1,"[(1,5-dimethyl-3-oxo-2-phenyl-pyrazol-4-yl)-methyl-amino]methanesulfonic acid"
"InChI=1S/C20H24N2O8/c1-10-13(6-19(27)28)12(3-5-18(25)26)16(22-10)8-15-14(7-20(29)30)11(9-21-15)2-4-17(23)24/h16H,2-9H2,1H3,(H,23,24)(H,25,26)(H,27,28)(H,29,30)",PIVMSLFNTMAVDI-UHFFFAOYSA-N,OC(=O)CC1=C(CCC(O)=O)C(N=C1C)CC1=NCC(CCC(O)=O)=C1CC(O)=O,C7H6O3,420.418,-1.0990,12,352.75,0,390.15665,0,3-[5-[[3-(2-carboxyethyl)-4-(carboxymethyl)-5-methyl-2<I>H</I>-pyrrol-2-yl]methyl]-4-(carboxymethyl)-2<I>H</I>-pyrrol-3-yl]propanoic acid
"InChI=1S/C21H29N3O/c1-16(2)24(17(3)4)15-13-21(20(22)25,18-10-6-5-7-11-18)19-12-8-9-14-23-19/h5-12,14,16-17H,13,15H2,1-4H3,(H2,22,25)",UVTNFZQICZKOEM-UHFFFAOYSA-N,O=C(N)C(CCN(C(C)C)C(C)C)(c1ccccc1)c1ncccc1,C7H8N4O2,339.483,3.7290,8,315.38,0,52.551342,1,4-(diisopropylamino)-2-phenyl-2-(2-pyridyl)butanamide
"InChI=1S/C22H27N9O4/c1-29-9-13(26-12-32)6-17(29)21(34)28-15-8-18(31(3)11-15)22(35)27-14-7-16(30(2)10-14)20(33)25-5-4-19(23)24/h6-12H,4-5H2,1-3H3,(H3,23,24)(H,25,33)(H,26,32)(H,27,35)(H,28,34)",UPBAOYRENQEPJO-UHFFFAOYSA-N,O=C(Nc1cc(n(c1)C)C(=O)NCCC(N)=N)c1n(cc(NC(=O)c2n(cc(NC=O)c2)C)c1)C,C8H10N4O2,481.517,-0.3520,13,442.75,2,469.77481,1,<I>N</I>-[5-[[5-[(3-amino-3-imino-propyl)carbamoyl]-1-methyl-pyrrol-3-yl]carbamoyl]-1-methyl-pyrrol-3-yl]-4-formamido-1-methyl-pyrrole-2-carboxamide
"InChI=1S/C22H32N4O4/c1-23-13-9-11-19(17-23)29-21(27)25(3)15-7-5-6-8-16-26(4)22(28)30-20-12-10-14-24(2)18-20/h9-14,17-18H,5-8,15-16H2,1-4H3/q+2",AHZBEVXBKNYXPU-UHFFFAOYSA-N,O(C(=O)N(CCCCCCN(C(Oc1ccc[n+](c1)C)=O)C)C)c1ccc[n+](c1)C,C8H14ClN5,416.522,4.1420,13,408.88,0,224.79581,0,(1-methylpyridin-1-ium-3-yl) <I>N</I>-methyl-<I>N</I>-[6-[methyl-(1-methylpyridin-1-ium-3-yl)oxycarbonyl-amino]hexyl]carbamate
"InChI=1S/C10H20N2S4/c1-5-11(6-2)9(13)15-16-10(14)12(7-3)8-4/h5-8H2,1-4H3",AUZONCFQVSMFAP-UHFFFAOYSA-N,S(SC(=S)N(CC)CC)C(=S)N(CC)CC,C8H8O3,296.548,3.3160,9,246.63,0,126.25137,1,"diethylcarbamothioylsulfanyl <I>N</I>,<I>N</I>-diethylcarbamodithioate"
"InChI=1S/C8H19O2PS3/c1-4-9-11(12,10-5-2)14-8-7-13-6-3/h4-8H2,1-3H3",DOFZAZXDOSGAJZ-UHFFFAOYSA-N,S(CCSP(=S)(OCC)OCC)CC,C8H9NO2,274.41,3.3540,9,209.75,0,154.1794,0,diethoxy-(2-ethylsulfanylethylsulfanyl)-thioxo-&lambda;<sup>5</sup>-phosphane
"InChI=1S/C46H48N6O2/c1-53-35-5-9-41-37(27-35)45-39-29-51(21-15-33(39)3-7-43(45)47-41)25-23-49-17-11-31(12-18-49)32-13-19-50(20-14-32)24-26-52-22-16-34-4-8-44-46(40(34)30-52)38-28-36(54-2)6-10-42(38)48 -44/h3-10,15-16,21-22,27-32H,11-14,17-20,23-26H2,1-2H3/",NHUWXMNVGMRODJ-UHFFFAOYSA-P,O(C)c1cc2c3c4c(ccc3[nH]c2cc1)cc[n+](c4)CCN1CCC(CC1)C1CCN(CC1)CC[n+]1cc2c3c4cc(OC)ccc4[nH]c3ccc2cc1,C9H10O3,718.94598,9.9160,9,704.13,2,206.30211,1,"10-methoxy-2-[2-[4-[1-[2-(10-methoxy-7<I>H</I>-pyrido[4,3-c]carbazol-2-ium-2-yl)ethyl]-4-piperidyl]-1-piperidyl]ethyl]-7<I>H</I>-pyrido[4,3-c]carbazol-2-ium"
"InChI=1S/C9H10Cl2N2O/c1-13(2)9(14)12-6-3-4-7(10)8(11)5-6/h3-5H,1-2H3,(H,12,14)",XMTQQYYKAHVGBJ-UHFFFAOYSA-N,Clc1cc(NC(=O)N(C)C)ccc1Cl,C9H8O2,233.09799,2.2570,3,195.63,0,99.102493,1,"3-(3,4-dichlorophenyl)-1,1-dimethyl-urea"
"InChI=1S/C8H16O2/c1-3-5-7(6-4-2)8(9)10/h7H,3-6H2,1-2H3,(H,9,10)",NIJJYAXOARWZEE-UHFFFAOYSA-N,OC(=O)C(CCC)CCC,C10H11ClO3,144.21399,2.5340,5,142.63,0,78.768311,0,2-propylpentanoic acid
"InChI=1S/C7H16NO5P/c8-6(7(9)10)4-2-1-3-5-14(11,12)13/h6H,1-5,8H2,(H,9,10)(H2,11,12,13)",MYDMWESTDPJANS-UHFFFAOYSA-N,P(O)(O)(=O)CCCCCC(N)C(O)=O,C10H11N3O3S,225.181,-3.3537,7,168.13,0,264.58331,1,2-amino-7-phosphono-heptanoic acid
"InChI=1S/C8H18NO5P/c9-7(8(10)11)5-3-1-2-4-6-15(12,13)14/h7H,1-6,9H2,(H,10,11)(H2,12,13,14)",KGGCRFYWXLVUQQ-UHFFFAOYSA-N,P(O)(O)(=O)CCCCCCC(N)C(O)=O,C10H12O3,239.20799,-2.9117,8,182.63,0,262.45236,0,2-amino-8-phosphono-octanoic acid
"InChI=1S/C7H11N5O/c1-3-2-9-5-4(10-3)6(13)12-7(8)11-5/h3,10H,2H2,1H3,(H4,8,9,11,12,13)",HWOZEJJVUCALGB-UHFFFAOYSA-N,O=C1N=C(NC=2NCC(NC1=2)C)N,C12H7Cl3O2,181.19899,-0.1760,0,155.38,0,226.96486,1,"2-amino-6-methyl-5,6,7,8-tetrahydro-1<I>H</I>-pteridin-4-one"
"InChI=1S/C10H13NO3/c1-10(11,9(13)14)6-7-2-4-8(12)5-3-7/h2-5,12H,6,11H2,1H3,(H,13,14)",NHTGHBARYWONDQ-UHFFFAOYSA-N,Oc1ccc(cc1)CC(N)(C(O)=O)C,C13H10N2O3S,195.218,-1.4237,3,171.13,0,170.07358,1,2-amino-3-(4-hydroxyphenyl)-2-methyl-propanoic acid
"InChI=1S/C18H39NO2/c1-2-3-4-5-6-7-8-9-10-11-12-13-14-15-18(21)17(19)16-20/h17-18,20-21H,2-16,19H2,1H3",OTKJDMGTUTTYMP-UHFFFAOYSA-N,OC(C(N)CO)CCCCCCCCCCCCCCC,C13H18O2,301.51498,4.9290,16,305.38,0,130.38464,0,"2-aminooctadecane-1,3-diol"
"InChI=1S/C9H12ClN/c1-7(11)6-8-2-4-9(10)5-3-8/h2-5,7H,6,11H2,1H3",WWPITPSIWMXDPE-UHFFFAOYSA-N,Clc1ccc(cc1)CC(N)C,C13H9Cl3N2O,169.655,2.3040,2,157.88,0,49.742992,1,1-(4-chlorophenyl)propan-2-amine
"InChI=1S/C10H14ClN/c1-8(12-2)7-9-3-5-10(11)6-4-9/h3-6,8,12H,7H2,1-2H3",XXLWNLKEOWWHDC-UHFFFAOYSA-N,Clc1ccc(cc1)CC(NC)C,C14H12O3,183.68199,2.8290,3,174.38,0,42.024036,0,1-(4-chlorophenyl)-<I>N</I>-methyl-propan-2-amine
"InChI=1S/C23H38N2O3/c1-2-3-4-5-6-7-11-14-22(26)24-21(19-25-15-17-28-18-16-25)23(27)20-12-9-8-10-13-20/h8-10,12-13,21,23,27H,2-7,11,14-19H2,1H3,(H,24,26)",UYNCFCUHRNOSCN-UHFFFAOYSA-N,O1CCN(CC1)CC(NC(=O)CCCCCCCCC)C(O)c1ccccc1,C15H12N2O,390.56799,3.8910,14,380.75,0,137.7952,1,<I>N</I>-[2-hydroxy-1-(morpholinomethyl)-2-phenyl-ethyl]decanamide
"InChI=1S/C29H50N2O3/c1-2-3-4-5-6-7-8-9-10-11-12-13-17-20-28(32)30-27(25-31-21-23-34-24-22-31)29(33)26-18-15-14-16-19-26/h14-16,18-19,27,29,33H,2-13,17,20-25H2,1H3,(H,30,32)",OFBANDBMHLEMFA-UHFFFAOYSA-N,O1CCN(CC1)CC(NC(=O)CCCCCCCCCCCCCCC)C(O)c1ccccc1,C4H4KNO4S,474.72998,6.5430,20,472.13,1,112.0869,1,<I>N</I>-[2-hydroxy-1-(morpholinomethyl)-2-phenyl-ethyl]hexadecanamide
"InChI=1S/C26H51NO3/c1-5-6-7-8-9-10-11-12-13-14-15-16-17-18-19-20-25(28)21-24(22-26(29)30)23-27(2,3)4/h24H,5-23H2,1-4H3/p+1",RQPGYEIGOQAPGW-UHFFFAOYSA-O,OC(=O)CC(CC(=O)CCCCCCCCCCCCCCCCC)C[N+](C)(C)C,C7H6O3,426.70599,6.6000,22,426.50,1,157.65675,0,[2-(carboxymethyl)-4-oxo-henicosyl]-trimethyl-ammonium
"InChI=1S/C12H15NO3S/c14-11(15)7-13-12(16)10(8-17)6-9-4-2-1-3-5-9/h1-5,10,17H,6-8H2,(H,13,16)(H,14,15)",LJJKNPQAGWVLDQ-UHFFFAOYSA-N,SCC(Cc1ccccc1)C(=O)NCC(O)=O,C7H8N4O2,253.32199,1.1940,7,221.13,0,189.95894,1,2-[(2-benzyl-3-sulfanyl-propanoyl)amino]acetic acid
"InChI=1S/C19H20O4/c1-21-17-10-8-16(14-18(17)22-2)9-11-19(20)23-13-12-15-6-4-3-5-7-15/h3-11,14H,12-13H2,1-2H3",OHBFHJOQNCVEOU-UHFFFAOYSA-N,O(C)c1cc(ccc1OC)C=CC(OCCc1ccccc1)=O,C8H10N4O2,312.36499,4.0657,8,311.63,0,112.53365,0,"2-phenylethyl (<I>E</I>)-3-(3,4-dimethoxyphenyl)prop-2-enoate"
"InChI=1S/C7H9N5/c1-12(2)7-5-6(9-3-8-5)10-4-11-7/h3-4H,1-2H3,(H,8,9,10,11)",BVIAOQMSVZHOJM-UHFFFAOYSA-N,[nH]1c2c(ncnc2N(C)C)nc1,C8H14ClN5,163.18399,-0.3319,1,156.75,0,148.19087,1,"<I>N</I>,<I>N</I>-dimethyl-7<I>H</I>-purin-6-amine"
"InChI=1S/C17H16N2O/c1-19(2)13-9-7-12(8-10-13)11-15-14-5-3-4-6-16(14)18-17(15)20/h3-11H,1-2H3,(H,18,20)",UAKWLVYMKBWHMX-UHFFFAOYSA-N,O=C1Nc2c(cccc2)C1=Cc1ccc(N(C)C)cc1,C8H8O3,264.328,3.1540,2,266.75,0,106.80013,1,(3<I>Z</I>)-3-[[4-(dimethylamino)phenyl]methylene]indolin-2-one
"InChI=1S/C12H10O4/c1-15-11-9(13)7-5-3-4-6-8(7)10(14)12(11)16-2/h3-6H,1-2H3",ZEGDFCCYTFPECB-UHFFFAOYSA-N,O(C)C1=C(OC)C(=O)c2c(cccc2)C1=O,C8H9NO2,218.20799,1.4717,2,204.88,0,133.08319,0,"2,3-dimethoxynaphthalene-1,4-dione"
"InChI=1S/C35H38N2O5/c38-23-29-15-11-27(12-16-29)21-36-31(19-25-7-3-1-4-8-25)33(40)34(41)32(20-26-9-5-2-6-10-26)37(35(36)42)22-28-13-17-30(24-39)18-14-28/h1-18,31-34,38-41H,19-24H2",XCVGQMUMMDXKCY-UHFFFAOYSA-N,OC1C(O)C(N(Cc2ccc(cc2)CO)C(=O)N(Cc2ccc(cc2)CO)C1Cc1ccccc1)Cc1ccccc1,C9H10O3,566.698,4.6090,10,504.75,2,183.53342,1,"4,7-dibenzyl-5,6-dihydroxy-1,3-bis[[4-(hydroxymethyl)phenyl]methyl]-1,3-diazepan-2-one"
"InChI=1S/C33H38N4O3/c34-27-15-7-13-25(17-27)21-36-29(19-23-9-3-1-4-10-23)31(38)32(39)30(20-24-11-5-2-6-12-24)37(33(36)40)22-26-14-8-16-28(35)18-26/h1-18,29-33,38-40H,19-22,34-35H2",XGWVVCFTECTRQS-UHFFFAOYSA-N,OC1C(O)C(N(Cc2cc(N)ccc2)C(O)N(Cc2cc(N)ccc2)C1Cc1ccccc1)Cc1ccccc1,C9H8O2,538.69202,4.5490,8,479.13,2,181.13545,0,"1,3-bis[(3-aminophenyl)methyl]-4,7-dibenzyl-1,3-diazepane-2,5,6-triol"
"InChI=1S/C16H14N2O2/c1-19-13-8-15-14(16(9-13)20-2)7-12(10-18-15)11-3-5-17-6-4-11/h3-10H,1-2H3",HBXDLZBPKJEWHZ-UHFFFAOYSA-N,O(C)c1cc(OC)cc2ncc(cc12)-c1ccncc1,C10H11ClO3,266.29999,2.8560,3,264.63,0,110.85783,1,"5,7-dimethoxy-3-(4-pyridyl)quinoline"
InChI=1S/C8H2N4O6/c13-7-8(14)10-4-2-6(12(17)18)5(11(15)16)1-3(4)9-7/h1-2H,YEUPBRRGMWBCEB-UHFFFAOYSA-N,O=C1N=C2C=C([N+](=O)[O-])C([N+](=O)[O-])=CC2=NC1=O,C10H11N3O3S,250.12599,0.3240,2,187.88,0,320.33148,1,"6,7-dinitroquinoxaline-2,3-dione"
"InChI=1S/C18H23NO3/c1-13(9-15-3-2-4-16(20)10-15)12-19-8-7-14-5-6-17(21)18(22)11-14/h2-6,10-11,13,19-22H,7-9,12H2,1H3",GUTBEOXGILVYQP-UHFFFAOYSA-N,Oc1cc(ccc1O)CCNCC(Cc1cc(O)ccc1)C,C10H12O3,301.38599,3.5990,7,286.63,0,146.7131,0,"4-[2-[[3-(3-hydroxyphenyl)-2-methyl-propyl]amino]ethyl]benzene-1,2-diol"
"InChI=1S/C21H30N2O8S/c1-5-28-20(26)30-17-8-7-15(13-18(17)31-21(27)29-6-2)9-11-22-19(25)16(10-12-32-4)23-14(3)24/h7-8,13,16H,5-6,9-12H2,1-4H3,(H,22,25)(H,23,24)",ZLVMAMIPILWYHQ-UHFFFAOYSA-N,S(CCC(NC(=O)C)C(=O)NCCc1cc(OC(OCC)=O)c(OC(OCC)=O)cc1)C,C12H7Cl3O2,470.543,2.5697,18,414.38,0,264.52853,1,[4-[2-[(2-acetamido-4-methylsulfanyl-butanoyl)amino]ethyl]-2-ethoxycarbonyloxy-phenyl] ethyl carbonate
"InChI=1S/C22H32O2/c1-2-3-4-5-6-7-8-9-10-11-12-13-14-15-16-17-18-19-20-21-22(23)24/h3-4,6-7,9-10,12-13,15-16,18-19H,2,5,8,11,14,17,20-21H2,1H3,(H,23,24)",MBMBGCFOFBJSGT-UHFFFAOYSA-N,OC(=O)CCC=CCC=CCC=CCC=CCC=CCC=CCC,C13H18O2,328.496,4.8760,14,359.25,1,246.21088,1,"(4<I>E</I>,7<I>E</I>,10<I>E</I>,13<I>E</I>,16<I>E</I>,19<I>E</I>)-docosa-4,7,10,13,16,19-hexaenoic acid"
"InChI=1S/C22H34O2/c1-2-3-4-5-6-7-8-9-10-11-12-13-14-15-16-17-18-19-20-21-22(23)24/h3-4,6-7,9-10,12-13,15-16H,2,5,8,11,14,17-21H2,1H3,(H,23,24)",YUFFSWGQGVEMMI-UHFFFAOYSA-N,OC(=O)CCCCCC=CCC=CCC=CCC=CCC=CCC,C13H9Cl3N2O,330.51199,5.4700,15,359.25,1,206.543,1,"(7<I>E</I>,10<I>E</I>,13<I>E</I>,16<I>E</I>,19<I>E</I>)-docosa-7,10,13,16,19-pentaenoic acid"
"InChI=1S/C22H38O2/c1-2-3-4-5-6-7-8-9-10-11-12-13-14-15-16-17-18-19-20-21-22(23)24/h3-4,6-7,9-10H,2,5,8,11-21H2,1H3,(H,23,24)",WBBQTNCISCKUMU-UHFFFAOYSA-N,OC(=O)CCCCCCCCCCCC=CCC=CCC=CCC,C14H12O3,334.54401,6.6580,17,359.25,1,157.19991,0,"(13<I>E</I>,16<I>E</I>,19<I>E</I>)-docosa-13,16,19-trienoic acid"
"InChI=1S/C23H23N2O2/c1-3-24-18-12-8-10-14-20(18)26-22(24)16-6-5-7-17-23-25(4-2)19-13-9-11-15-21(19)27-23/h5-17H,3-4H2,1-2H3/q+1",VAGJCLDZLVQVPR-UHFFFAOYSA-N,o1c2c([n+](CC)c1\C=C\C=C\C=C\1/Oc3c(N/1CC)cccc3)cccc2,C15H12N2O,359.44901,6.7060,5,369.50,1,38.199036,1,"(2<I>Z</I>)-3-ethyl-2-[(2<I>E</I>,4<I>E</I>)-5-(3-ethyl-1,3-benzoxazol-3-ium-2-yl)penta-2,4-dienylidene]-1,3-benzoxazole"
"InChI=1S/C22H40NO/c1-4-5-6-7-8-9-10-11-12-16-19-23(2,3)20-21-24-22-17-14-13-15-18-22/h13-15,17-18H,4-12,16,19-21H2,1-3H3/q+1",YXUPZGKORWTXID-UHFFFAOYSA-N,O(CC[N+](CCCCCCCCCCCC)(C)C)c1ccccc1,C7H6O3,334.56799,6.3510,15,350.75,1,42.020065,1,dodecyl-dimethyl-(2-phenoxyethyl)ammonium
"InChI=1S/C15H21NO6/c1-8(4-3-5-9(2)14(19)20)11-7-16-13(15(21)22)10(11)6-12(17)18/h3-5,9-11,13,16H,6-7H2,1-2H3,(H,17,18)(H,19,20)(H,21,22)",VZFRNCSOCOPNDB-UHFFFAOYSA-N,OC(=O)C1NCC(C(=CC=CC(C(O)=O)C)C)C1CC(O)=O,C7H8N4O2,311.33398,0.2930,7,266.13,0,298.73181,1,"3-(carboxymethyl)-4-[(1<I>E</I>,3<I>E</I>)-5-carboxy-1-methyl-hexa-1,3-dienyl]pyrrolidine-2-carboxylic acid"
"InChI=1S/C22H24ClN5O2/c23-15-6-7-20-18(14-15)25-22(30)28(20)16-8-12-26(13-9-16)10-3-11-27-19-5-2-1-4-17(19)24-21(27)29/h1-2,4-7,14,16H,3,8-13H2,(H,24,29)(H,25,30)",FGXWKSZFVQUSTL-UHFFFAOYSA-N,Clc1cc2NC(=O)N(c2cc1)C1CCN(CC1)CCCN1c2c(NC1=O)cccc2,C8H10N4O2,425.91998,2.7550,5,383.63,0,170.52704,0,6-chloro-3-[1-[3-(2-oxo-3<I>H</I>-benzimidazol-1-yl)propyl]-4-piperidyl]-1<I>H</I>-benzimidazol-2-one
"InChI=1S/C24H29NO3/c1-27-22-14-19-13-20(24(26)21(19)15-23(22)28-2)12-17-8-10-25(11-9-17)16-18-6-4-3-5-7-18/h3-7,14-15,17,20H,8-13,16H2,1-2H3",ADEBPBSSDYVVLD-UHFFFAOYSA-N,O(C)c1cc2c(CC(CC3CCN(CC3)Cc3ccccc3)C2=O)cc1OC,C8H14ClN5,379.5,4.1457,6,370.75,0,118.69917,1,"2-[(1-benzyl-4-piperidyl)methyl]-5,6-dimethoxy-indan-1-one"
"InChI=1S/C10H13NO2/c11-8-2-1-6-4-9(12)10(13)5-7(6)3-8/h4-5,8,12-13H,1-3,11H2",ASXGAOFCKGHGMF-UHFFFAOYSA-N,Oc1cc2CC(N)CCc2cc1O,C8H8O3,179.21899,1.1750,0,161.88,0,148.17522,0,"2-aminotetralin-6,7-diol"
"InChI=1S/C10H16N2O4S3/c1-3-12-8-4-6(2)18(13,14)10-7(8)5-9(17-10)19(11,15)16/h5-6,8,12H,3-4H2,1-2H3,(H2,11,15,16)",IAVUPMFITXYVAF-UHFFFAOYSA-N,s1c2S(=O)(=O)C(CC(NCC)c2cc1S(=O)(=O)N)C,C8H9NO2,324.44601,0.6090,3,226.63,0,217.09904,1,"4-(ethylamino)-6-methyl-7,7-dioxo-5,6-dihydro-4<I>H</I>-thieno[2,3-b]thiopyran-2-sulfonamide"
"InChI=1S/C19H21NS/c1-20(2)13-7-11-17-16-9-4-3-8-15(16)14-21-19-12-6-5-10-18(17)19/h3-6,8-12H,7,13-14H2,1-2H3",PHTUQLWOUWZIMZ-UHFFFAOYSA-N,S1Cc2c(cccc2)\C(\c2c1cccc2)=C\CCN(C)C,C9H10O3,295.44998,4.8010,3,291.25,0,94.15049,1,"(3<I>Z</I>)-3-(6<I>H</I>-benzo[c][1]benzothiepin-11-ylidene)-<I>N</I>,<I>N</I>-dimethyl-propan-1-amine"
"InChI=1S/C24H30N2O2/c1-2-26-19-22(13-14-25-15-17-28-18-16-25)24(23(26)27,20-9-5-3-6-10-20)21-11-7-4-8-12-21/h3-12,22H,2,13-19H2,1H3",XFDJYSQDBULQSI-UHFFFAOYSA-N,O1CCN(CC1)CCC1CN(CC)C(=O)C1(c1ccccc1)c1ccccc1,C9H8O2,378.51599,3.7890,6,345.25,0,85.290268,0,"1-ethyl-4-(2-morpholinoethyl)-3,3-diphenyl-pyrrolidin-2-one"
"InChI=1S/C23H25N5O5/c1-30-18-11-14-15(12-19(18)31-2)25-23(26-21(14)24)28-9-7-27(8-10-28)22(29)20-13-32-16-5-3-4-6-17(16)33-20/h3-6,11-12,20H,7-10,13H2,1-2H3,(H2,24,25,26)",RUZYUOTYCVRMRZ-UHFFFAOYSA-N,O1c2c(OCC1C(=O)N1CCN(CC1)c1nc(N)c3cc(OC)c(OC)cc3n1)cccc2,C10H11ClO3,451.483,0.9797,5,408.25,0,233.73776,1,"[4-(4-amino-6,7-dimethoxy-quinazolin-2-yl)piperazin-1-yl]-(2,3-dihydro-1,4-benzodioxin-3-yl)methanone"
"InChI=1S/C19H21NO/c1-20(2)13-7-11-17-16-9-4-3-8-15(16)14-21-19-12-6-5-10-18(17)19/h3-6,8-12H,7,13-14H2,1-2H3",ODQWQRRAPPTVAG-UHFFFAOYSA-N,O1Cc2c(cccc2)\C(\c2c1cccc2)=C\CCN(C)C,C10H11N3O3S,279.383,4.1650,3,285.38,0,68.776573,0,"(3<I>Z</I>)-3-(6<I>H</I>-benzo[c][1]benzoxepin-11-ylidene)-<I>N</I>,<I>N</I>-dimethyl-propan-1-amine"
"InChI=1S/C9H11FN2O5/c1-3-5(13)6(14)8(17-3)12-2-4(10)7(15)11-9(12)16/h2-3,5-6,8,13-14H,1H3,(H,11,15,16)",ZWAOHEXOSAUJHY-UHFFFAOYSA-N,FC1=CN(C2OC(C)C(O)C2O)C(=O)NC1=O,C10H12O3,246.194,-1.5810,1,190.38,0,218.68755,1,"1-(3,4-dihydroxy-5-methyl-tetrahydrofuran-2-yl)-5-fluoro-pyrimidine-2,4-dione"
"InChI=1S/C27H31NO11/c1-10-22(31)13(28)6-17(38-10)39-15-8-27(36,16(30)9-29)7-12-19(15)26(35)21-20(24(12)33)23(32)11-4-3-5-14(37-2)18(11)25(21)34/h3-5,10,13,15,17,20-22,29,31,33,35-36H,6-9,28H2,1-2H3",QWYCEUQRGAYBKC-UHFFFAOYSA-N,O1C(C)C(O)C(N)CC1OC1CC(O)(CC=2C1=C(O)C1C(C(=O)c3c(C1=O)c(OC)ccc3)C=2O)C(=O)CO,C12H7Cl3O2,545.54102,-0.8350,5,444.00,3,334.16254,1,"7-(4-amino-5-hydroxy-6-methyl-tetrahydropyran-2-yl)oxy-6,9,11-trihydroxy-9-(2-hydroxyacetyl)-4-methoxy-7,8,10,11<I>a</I>-tetrahydro-5<I>a</I><I>H</I>-tetracene-5,12-dione"
"InChI=1S/C22H24N2O8/c1-7-8-5-4-6-9(25)11(8)16(26)12-10(7)17(27)14-15(24(2)3)18(28)13(21(23)31)20(30)22(14,32)19(12)29/h4-7,10,14-15,17,25-27,31-32H,23H2,1-3H3",UEVKMCOZLJYVNG-UHFFFAOYSA-N,OC12C(C(N(C)C)C(=O)C(=C(O)N)C1=O)C(O)C1C(C2=O)=C(O)c2c(cccc2O)C1C,C13H10N2O3S,444.44,-0.5600,1,356.50,1,279.85284,0,"(2<I>E</I>)-2-[amino(hydroxy)methylene]-4-(dimethylamino)-5,10,11,12<I>a</I>-tetrahydroxy-6-methyl-4<I>a</I>,5,5<I>a</I>,6-tetrahydro-4<I>H</I>-tetracene-1,3,12-trione"
"InChI=1S/C17H22N2O/c1-17(20-14-13-19(2)3,15-9-5-4-6-10-15)16-11-7-8-12-18-16/h4-12H,13-14H2,1-3H3",HCFDWZZGGLSKEP-UHFFFAOYSA-N,O(C(C)(c1ccccc1)c1ncccc1)CCN(C)C,C13H18O2,270.37601,2.9180,6,270.75,0,53.480671,1,"<I>N</I>,<I>N</I>-dimethyl-2-[1-phenyl-1-(2-pyridyl)ethoxy]ethanamine"
"InChI=1S/C27H31N5O6/c1-15-6-4-5-7-19(15)20(16-8-17(36-2)10-18(9-16)37-3)11-28-25-22-26(30-13-29-25)32(14-31-22)27-24(35)23(34)21(12-33)38-27/h4-10,13-14,20-21,23-24,27,33-35H,11-12H2,1-3H3,(H,28,29,30 )",BUHVIAUBTBOHAG-UHFFFAOYSA-N,O1C(CO)C(O)C(O)C1n1c2ncnc(NCC(c3ccccc3C)c3cc(OC)cc(OC)c3)c2nc1,C13H9Cl3N2O,521.57397,1.8401,9,469.00,2,302.38223,0,"2-[6-[[2-(3,5-dimethoxyphenyl)-2-(o-tolyl)ethyl]amino]purin-9-yl]-5-(hydroxymethyl)tetrahydrofuran-3,4-diol"
"InChI=1S/C18H26N2O2/c21-18-16-9-3-2-8-15(16)17(14-19-18)22-13-7-6-12-20-10-4-1-5-11-20/h2-3,8-9,17H,1,4-7,10-14H2,(H,19,21)",SNXXMVHAWWHIFJ-UHFFFAOYSA-N,O(CCCCN1CCCCC1)C1c2c(cccc2)C(=O)NC1,C14H12O3,302.418,2.7970,6,293.38,0,111.74853,1,"4-[4-(1-piperidyl)butoxy]-3,4-dihydro-2<I>H</I>-isoquinolin-1-one"
"InChI=1S/C12H12Cl2N2O4/c13-5-1-7-8(2-6(5)14)16(4-15-7)12-11(19)10(18)9(3-17)20-12/h1-2,4,9-12,17-19H,3H2",XHSQDZXAVJRBMX-UHFFFAOYSA-N,Clc1cc2n(cnc2cc1Cl)C1OC(CO)C(O)C1O,C15H12N2O,319.14398,0.9790,2,242.88,0,151.03632,1,"2-(5,6-dichlorobenzimidazol-1-yl)-5-(hydroxymethyl)tetrahydrofuran-3,4-diol"
"InChI=1S/C20H31NO2/c1-3-21(4-2)15-16-23-20(22)19(17-11-7-5-8-12-17)18-13-9-6-10-14-18/h5,7-8,11-12,18-19H,3-4,6,9-10,13-16H2,1-2H3",AGJBLWCLQCKRJP-UHFFFAOYSA-N,O(C(=O)C(C1CCCCC1)c1ccccc1)CCN(CC)CC,C4H4KNO4S,317.47299,4.4960,9,317.38,0,41.139198,0,2-(diethylamino)ethyl 2-cyclohexyl-2-phenyl-acetate