InChI,Key,smiles,Formula,Weight,logP(o/w),b_rotN,vol,lip_violation,ASA_P,Natural,ChemicalName
"InChI=1S/C34H52N4O4/c1-7-21-17(3)25-13-26-19(5)23(9-11-33(39)40)31(37-26)16-32-24(10-12-34(41)42)20(6)28(38-32)15-30-22(8-2)18(4)27(36-30)14-29(21)35-25/h7-8,17,19-26,28-29,31-32,35,37-38H,1-2,9-16H2, 3-6H3,(H,39,40)(H,41,42)",PDLRSACZRWHPNY-UHFFFAOYSA-N,OC(=O)CCC1C2NC(CC3NC(CC=4N=C(CC5NC(C2)C(CCC(O)=O)C5C)C(C=C)C=4C)C(C=C)C3C)C1C,C14H12O3,580.81396,3.8770,8,519.88,1,278.28625,1,"3-[18-(2-carboxyethyl)-3,7,12,17-tetramethyl-8,13-divinyl-1,2,3,4,5,6,7,8,9,10,13,15,16,17,18,19,20,21,22,24-icosahydroporphyrin-2-yl]propanoic acid"
"InChI=1S/C5H13O14P3/c6-3-2(1-16-20(8,9)10)17-5(4(3)7)18-22(14,15)19-21(11,12)13/h2-7H,1H2,(H,14,15)(H2,8,9,10)(H2,11,12,13)",PQGCEDQWHSBAJP-UHFFFAOYSA-N,P(OC1OC(COP(O)(O)=O)C(O)C1O)(OP(O)(O)=O)(O)=O,C15H12N2O,390.06699,-5.0150,7,212.38,2,445.00244,0,"[3,4-dihydroxy-5-(phosphonooxymethyl)tetrahydrofuran-2-yl] phosphono hydrogen phosphate"
"InChI=1S/C9H13N2O9P/c12-5-4(2-19-21(16,17)18)20-7(6(5)13)3-1-10-9(15)11-8(3)14/h1,4-7,12-13H,2H2,(H2,16,17,18)(H2,10,11,14,15)",MOBMOJGXNHLLIR-UHFFFAOYSA-N,P(OCC1OC(C2=CNC(=O)NC2=O)C(O)C1O)(O)(O)=O,C4H4KNO4S,324.18201,-4.0910,4,222.88,2,382.71579,1,"[5-(2,4-dioxo-1<I>H</I>-pyrimidin-5-yl)-3,4-dihydroxy-tetrahydrofuran-2-yl]methyl dihydrogen phosphate"
InChI=1S/C6H4N4/c1-2-9-6-5(8-1)3-7-4-10-6/h1-4H,CPNGPNLZQNNVQM-UHFFFAOYSA-N,n1c2c(ncc1)ncnc2,C7H6O3,132.12599,-0.4904,0,125.50,0,117.77937,0,pteridine
"InChI=1S/C5H4N4/c1-4-5(8-2-6-1)9-3-7-4/h1-3H,(H,6,7,8,9)",KDCGOANMDULRCW-UHFFFAOYSA-N,[nH]1c2c(ncnc2)nc1,C7H8N4O2,120.115,-0.6509,0,112.25,0,130.92357,1,7<I>H</I>-purine
"InChI=1S/C5H5N3O/c6-5(9)4-3-7-1-2-8-4/h1-3H,(H2,6,9)",IPEHBUMCGVEMRF-UHFFFAOYSA-N,O=C(N)c1nccnc1,C8H10N4O2,123.115,-1.4595,1,113.00,0,146.83908,1,pyrazine-2-carboxamide
"InChI=1S/C5H4N2O2/c8-5(9)4-3-6-1-2-7-4/h1-3H,(H,8,9)",NIPZZXUFJPQHNH-UHFFFAOYSA-N,OC(=O)c1nccnc1,C8H14ClN5,124.099,-0.7255,1,111.00,0,141.97336,0,pyrazine-2-carboxylic acid
"InChI=1S/C3H4N2/c1-2-4-5-3-1/h1-3H,(H,4,5)",WTKZEGDFNFYCGP-UHFFFAOYSA-N,[nH]1nccc1,C8H8O3,68.079002,0.3370,0,68.63,0,92.989471,1,1<I>H</I>-pyrazole
InChI=1S/C5H5N/c1-2-4-6-5-3-1/h1-5H,JUJWROOIHBZHMG-UHFFFAOYSA-N,n1ccccc1,C8H9NO2,79.101997,0.6740,0,87.50,0,18.103783,0,pyridine
"InChI=1S/C8H9NO3/c1-5-8(12)7(4-11)6(3-10)2-9-5/h2,4,10,12H,3H2,1H3",RADKZDMFGJYCBB-UHFFFAOYSA-N,Oc1c(C=O)c(cnc1C)CO,C9H10O3,167.164,0.0230,2,149.13,0,155.73763,1,3-hydroxy-5-(hydroxymethyl)-2-methyl-pyridine-4-carbaldehyde
"InChI=1S/C8H10NO6P/c1-5-8(11)7(3-10)6(2-9-5)4-15-16(12,13)14/h2-3,11H,4H2,1H3,(H2,12,13,14)",NGVDGCNFYWLIFO-UHFFFAOYSA-N,P(OCc1cnc(C)c(O)c1C=O)(O)(O)=O,C9H8O2,247.14299,-0.8640,4,184.88,0,222.94922,1,(4-formyl-5-hydroxy-6-methyl-3-pyridyl)methyl dihydrogen phosphate
"InChI=1S/C8H12N2O2/c1-5-8(12)7(2-9)6(4-11)3-10-5/h3,11-12H,2,4,9H2,1H3",NHZMQXZHNVQTQA-UHFFFAOYSA-N,Oc1c(CN)c(cnc1C)CO,C10H11ClO3,168.196,-0.6480,2,151.38,0,149.93712,0,4-(aminomethyl)-5-(hydroxymethyl)-2-methyl-pyridin-3-ol
"InChI=1S/C8H13N2O5P/c1-5-8(11)7(2-9)6(3-10-5)4-15-16(12,13)14/h3,11H,2,4,9H2,1H3,(H2,12,13,14)",ZMJGSOSNSPKHNH-UHFFFAOYSA-N,P(OCc1cnc(C)c(O)c1CN)(O)(O)=O,C10H11N3O3S,248.175,-1.5350,4,187.13,0,224.59659,1,[4-(aminomethyl)-5-hydroxy-6-methyl-3-pyridyl]methyl dihydrogen phosphate
"InChI=1S/C8H11NO3/c1-5-8(12)7(4-11)6(3-10)2-9-5/h2,10-12H,3-4H2,1H3",LXNHXLLTXMVWPM-UHFFFAOYSA-N,Oc1c(CO)c(cnc1C)CO,C10H12O3,169.17999,-0.4260,2,149.13,0,141.93985,0,"4,5-bis(hydroxymethyl)-2-methyl-pyridin-3-ol"
"InChI=1S/C8H12NO6P/c1-5-8(11)7(3-10)6(2-9-5)4-15-16(12,13)14/h2,10-11H,3-4H2,1H3,(H2,12,13,14)",WHOMFKWHIQZTHY-UHFFFAOYSA-N,P(OCc1cnc(C)c(O)c1CO)(O)(O)=O,C12H7Cl3O2,249.159,-1.3130,4,184.88,0,238.80818,1,[5-hydroxy-4-(hydroxymethyl)-6-methyl-3-pyridyl]methyl dihydrogen phosphate
"InChI=1S/C4H6N2/c1-2-5-4-6-3-1/h1-3,5H,4H2",WCFAPJDPAPDDAQ-UHFFFAOYSA-N,N1C=CC=NC1,C13H10N2O3S,82.105995,-0.3130,0,83.50,0,86.051514,1,"1,2-dihydropyrimidine"
"InChI=1S/H4O7P2/c1-8(2,3)7-9(4,5)6/h(H2,1,2,3)(H2,4,5,6)/p-1",XPPKVPWEQAFLFU-UHFFFAOYSA-M,P(OP(O)(O)=O)(O)(=O)[O-],C13H18O2,176.965,-2.6660,2,82.25,0,275.82019,0,phosphono hydrogen phosphate
"InChI=1S/C5H7NO3/c7-3-1-4(5(8)9)6-2-3/h2-4,7H,1H2,(H,8,9)",WFOFKRKDDKGRIK-UHFFFAOYSA-N,OC1CC(N=C1)C(O)=O,C13H9Cl3N2O,129.11499,-0.7610,1,103.38,0,187.93083,1,"4-hydroxy-3,4-dihydro-2<I>H</I>-pyrrole-2-carboxylic acid"
"InChI=1S/C3H4O3/c1-2(4)3(5)6/h1H3,(H,5,6)",LCTONWCANYUPML-UHFFFAOYSA-N,OC(=O)C(=O)C,C14H12O3,88.061996,-0.5240,1,75.88,0,149.13754,0,2-oxopropanoic acid
"InChI=1S/H3O4P/c1-5(2,3)4/h(H3,1,2,3,4)/p-3",NBIIXXVUZAFLBC-UHFFFAOYSA-K,P(=O)([O-])([O-])[O-],C15H12N2O,94.970001,-1.8840,0,46.38,0,190.94727,1,phosphate
"InChI=1S/C19H28O4/c1-12(2)8-7-9-13(3)10-11-15-14(4)16(20)18(22-5)19(23-6)17(15)21/h8,10,20-21H,7,9,11H2,1-6H3",RNUCUWWMTTWKAH-UHFFFAOYSA-N,O(C)c1c(O)c(CC=C(CCC=C(C)C)C)c(C)c(O)c1OC,C4H4KNO4S,320.42899,3.1777,7,317.50,0,145.69011,1,"2-[(2<I>E</I>)-3,7-dimethylocta-2,6-dienyl]-5,6-dimethoxy-3-methyl-benzene-1,4-diol"
"InChI=1S/C12H13N5O3/c13-12-16-10-8(11(20)17-12)5(4-15-10)3-14-6-1-2-7(18)9(6)19/h1-2,4,6-7,9,14,18-19H,3H2,(H2,13,17,20)",LAIOPTKSQBPSHG-UHFFFAOYSA-N,OC1C(NCC2=C3C(=NC(=NC3=O)N)N=C2)C=CC1O,C7H6O3,275.26801,-1.4290,3,231.63,0,316.13382,0,"2-amino-5-[[(4,5-dihydroxycyclopent-2-en-1-yl)amino]methyl]pyrrolo[2,3-d]pyrimidin-4-one"
"InChI=1S/C7H12O6/c8-3-1-7(13,6(11)12)2-4(9)5(3)10/h3-5,8-10,13H,1-2H2,(H,11,12)",AAWZDTNXLSGCEK-UHFFFAOYSA-N,OC1C(O)CC(O)(CC1O)C(O)=O,C7H8N4O2,192.16699,-1.8990,1,133.38,0,237.22369,1,"1,3,4,5-tetrahydroxycyclohexanecarboxylic acid"
"InChI=1S/C20H24N2O2/c1-3-13-12-22-9-7-14(13)10-19(22)20(23)16-6-8-21-18-5-4-15(24-2)11-17(16)18/h3-6,8,11,13-14,19-20,23H,1,7,9-10,12H2,2H3",LOUPRKONTZGTKE-UHFFFAOYSA-N,O(C)c1cc2c(nccc2C(O)C2N3CC(C(C2)CC3)C=C)cc1,C8H10N4O2,324.42398,2.7700,4,284.75,0,149.70558,0,(6-methoxy-4-quinolyl)-(5-vinylquinuclidin-2-yl)methanol
"InChI=1S/C7H5NO4/c9-6(10)4-2-1-3-8-5(4)7(11)12/h1-3H,(H,9,10)(H,11,12)",GJAWHXHKYYXBSV-UHFFFAOYSA-N,OC(=O)c1cccnc1C(O)=O,C8H14ClN5,167.12,-0.0130,2,137.75,0,193.46269,1,"pyridine-2,3-dicarboxylic acid"
"InChI=1S/C29H44N5O18P/c1-12(25(42)31-17(28(46)47)4-6-21(38)30-16(27(44)45)5-7-22(39)40)52-53(49,50)51-11-20(37)23(41)19(36)10-34-18-9-14(35)3-2-13(18)8-15-24(34)32-29(48)33-26(15)43/h12-14,16-20,23,35 -37,41H,2-11H2,1H3,(H,30,38)(H,31,42)(H,39,40)(H,44,45)",PBRJZMPOBGVLQS-UHFFFAOYSA-N,P(OC(C(=O)NC(CCC(=O)NC(CCC(O)=O)C(O)=O)C(O)=O)C)(OCC(O)C(O)C(O)CN1C2CC(O)CCC2CC2=C1NC(=O)NC2=O)(O)=O,C8H8O3,781.66199,-4.2730,22,589.63,3,657.21576,1,"2-[[4-carboxy-4-[2-[hydroxy-[2,3,4-trihydroxy-5-(8-hydroxy-2,4-dioxo-1,5,5<I>a</I>,6,7,8,9,9<I>a</I>-octahydropyrimido[4,5-b]quinolin-10-yl)pentoxy]phosphoryl]oxypropanoylamino]butanoyl]amino]pentaned ioic acid"
InChI=1S/C2H6S/c1-3-2/h1-2H3,QMMFVYPAHWMCMS-UHFFFAOYSA-N,S(C)C,C8H9NO2,62.136002,0.8440,0,57.00,0,95.502724,0,methylsulfanylmethane
"InChI=1S/C51H76O2/c1-38(2)20-13-21-39(3)22-14-23-40(4)24-15-25-41(5)26-16-27-42(6)28-17-29-43(7)30-18-31-44(8)32-19-33-45(9)36-37-47-46(10)50(52)48-34-11-12-35-49(48)51(47)53/h11-12,20,22,24,26,28,30, 32,34-36,50-53H,13-19,21,23,25,27,29,31,33,37H2,1-10H3",SCDBWOQTPYJUHA-UHFFFAOYSA-N,OC1c2c(cccc2)C(O)C(C)=C1CC=C(CCC=C(CCC=C(CCC=C(CCC=C(CCC=C(CCC=C(CCC=C(C)C)C)C)C)C)C)C)C,C9H10O3,721.16699,8.4360,23,773.13,2,138.96515,1,"2-methyl-3-[(2<I>E</I>,6<I>E</I>,10<I>E</I>,14<I>E</I>,18<I>E</I>,22<I>E</I>,26<I>E</I>)-3,7,11,15,19,23,27,31-octamethyldotriaconta-2,6,10,14,18,22,26,30-octaenyl]-1,4-dihydronaphthalene-1,4-diol"
"InChI=1S/C20H28O/c1-16(8-6-9-17(2)13-15-21)11-12-19-18(3)10-7-14-20(19,4)5/h6,8-9,11-13,15H,7,10,14H2,1-5H3",NCYCYZXNIZJOKI-UHFFFAOYSA-N,O=CC=C(C=CC=C(C=CC=1C(CCCC=1C)(C)C)C)C,C9H8O2,284.44299,4.8790,5,299.25,1,58.095806,0,"(2<I>E</I>,4<I>E</I>,6<I>E</I>,8<I>E</I>)-3,7-dimethyl-9-(2,6,6-trimethylcyclohexen-1-yl)nona-2,4,6,8-tetraenal"
"InChI=1S/C20H30O/c1-16(8-6-9-17(2)13-15-21)11-12-19-18(3)10-7-14-20(19,4)5/h6,8-9,11-13,21H,7,10,14-15H2,1-5H3",FPIPGXGPPPQFEQ-UHFFFAOYSA-N,OCC=C(C=CC=C(C=CC=1C(CCCC=1C)(C)C)C)C,C10H11ClO3,286.45898,4.4300,5,299.25,1,67.368492,1,"(2<I>E</I>,4<I>E</I>,6<I>E</I>,8<I>E</I>)-3,7-dimethyl-9-(2,6,6-trimethylcyclohexen-1-yl)nona-2,4,6,8-tetraen-1-ol"
"InChI=1S/C17H20N4O6/c1-7-3-9-10(4-8(7)2)21(5-11(23)14(25)12(24)6-22)15-13(18-9)16(26)20-17(27)19-15/h3-4,11-12,14,22-25H,5-6H2,1-2H3,(H,20,26,27)",AUNGANRZJHBGPY-UHFFFAOYSA-N,O=C1NC(=O)N=C2N(c3cc(C)c(cc3N=C12)C)CC(O)C(O)C(O)CO,C10H11N3O3S,376.36899,-1.2120,5,312.75,0,276.94275,1,"7,8-dimethyl-10-(2,3,4,5-tetrahydroxypentyl)benzo[g]pteridine-2,4-dione"
"InChI=1S/C5H12O11P2/c6-3-2(1-14-17(8,9)10)15-5(4(3)7)16-18(11,12)13/h2-7H,1H2,(H2,8,9,10)(H2,11,12,13)",AAAFZMYJJHWUPN-UHFFFAOYSA-N,P(OC1OC(COP(O)(O)=O)C(O)C1O)(O)(O)=O,C10H12O3,310.08798,-4.1330,5,181.50,2,335.39423,0,"[3,4-dihydroxy-5-(phosphonooxymethyl)tetrahydrofuran-2-yl] dihydrogen phosphate"
"InChI=1S/C5H11O8P/c6-1-2-3(7)4(8)5(12-2)13-14(9,10)11/h2-8H,1H2,(H2,9,10,11)",YXJDFQJKERBOBM-UHFFFAOYSA-N,P(OC1OC(CO)C(O)C1O)(O)(O)=O,C12H7Cl3O2,230.10899,-3.2460,3,144.88,0,286.14224,1,"[3,4-dihydroxy-5-(hydroxymethyl)tetrahydrofuran-2-yl] dihydrogen phosphate"
"InChI=1S/C10H19NO2S2/c1-8(12)15-9(6-7-14)4-2-3-5-10(11)13/h9,14H,2-7H2,1H3,(H2,11,13)",ARGXEXVCHMNAQU-UHFFFAOYSA-N,S(C(CCCCC(=O)N)CCS)C(=O)C,C13H10N2O3S,249.399,2.0200,9,210.50,0,224.74272,0,<I>S</I>-[6-amino-6-oxo-1-(2-sulfanylethyl)hexyl] ethanethioate
"InChI=1S/C15H19N5O6S/c1-27(3-2-7(21)15(24)25)4-8-10(22)11(23)14(26-8)20-6-19-9-12(16)17-5-18-13(9)20/h5-6,8,10-11,14,22-23H,2-4H2,1H3,(H2-,16,17,18,24,25)/p+1",UOKVQQMBGVMXPU-UHFFFAOYSA-O,[S+](CC1OC(n2c3ncnc(N)c3nc2)C(O)C1O)(CCC(=O)C(O)=O)C,C13H18O2,398.41998,-2.8979,7,315.63,1,371.99973,1,"[5-(6-aminopurin-9-yl)-3,4-dihydroxy-tetrahydrofuran-2-yl]methyl-(3-carboxy-3-oxo-propyl)-methyl-sulfonium"
"InChI=1S/C14H23N6O3S/c1-24(4-2-3-15)5-8-10(21)11(22)14(23-8)20-7-19-9-12(16)17-6-18-13(9)20/h6-8,10-11,14,21-22H,2-5,15H2,1H3,(H2,16,17,18)/q+1",ZUNBITIXDCPNSD-UHFFFAOYSA-N,[S+](CC1OC(n2c3ncnc(N)c3nc2)C(O)C1O)(CCCN)C,C13H9Cl3N2O,355.44299,-2.5199,6,290.75,1,305.18799,1,"3-aminopropyl-[[5-(6-aminopurin-9-yl)-3,4-dihydroxy-tetrahydrofuran-2-yl]methyl]-methyl-sulfonium"
"InChI=1S/C15H22N6O5S/c1-27(3-2-7(16)15(24)25)4-8-10(22)11(23)14(26-8)21-6-20-9-12(17)18-5-19-13(9)21/h5-8,10-11,14,22-23H,2-4,16H2,1H3,(H2-,17,18,19,24,25)/p+1",MEFKEPWMEQBLKI-UHFFFAOYSA-O,[S+](CC1OC(n2c3ncnc(N)c3nc2)C(O)C1O)(CCC(N)C(O)=O)C,C14H12O3,399.452,-5.2927,7,317.75,2,342.89597,0,"(3-amino-3-carboxy-propyl)-[[5-(6-aminopurin-9-yl)-3,4-dihydroxy-tetrahydrofuran-2-yl]methyl]-methyl-sulfonium"
"InChI=1S/C5H9NO4S/c6-3(5(9)10)1-11-2-4(7)8/h3H,1-2,6H2,(H,7,8)(H,9,10)",GBFLZEXEOZUWRN-UHFFFAOYSA-N,S(CC(N)C(O)=O)CC(O)=O,C15H12N2O,179.196,-3.3397,5,130.50,0,284.38013,1,2-amino-3-(carboxymethylsulfanyl)propanoic acid
"InChI=1S/C5H8O5/c1-5(10,4(8)9)2-3(6)7/h10H,2H2,1H3,(H,6,7)(H,8,9)",XFTRTWQBIOMVPK-UHFFFAOYSA-N,OC(CC(O)=O)(C(O)=O)C,C4H4KNO4S,148.114,-0.7780,3,110.25,0,201.79703,0,2-hydroxy-2-methyl-butanedioic acid
"InChI=1S/C11H19N3O7S/c12-6(11(20)21)1-2-8(16)14-7(4-22-5-15)10(19)13-3-9(17)18/h6-7,15H,1-5,12H2,(H,13,19)(H,14,16)(H,17,18)(H,20,21)",PIUSLWSYOYFRFR-UHFFFAOYSA-N,S(CC(NC(=O)CCC(N)C(O)=O)C(=O)NCC(O)=O)CO,C7H6O3,337.353,-5.0187,13,261.75,1,416.58664,1,2-amino-5-[[2-(carboxymethylamino)-1-(hydroxymethylsulfanylmethyl)-2-oxo-ethyl]amino]-5-oxo-pentanoic acid
"InChI=1S/C13H21N3O8S/c1-6(17)13(24)25-5-8(11(21)15-4-10(19)20)16-9(18)3-2-7(14)12(22)23/h6-8,17H,2-5,14H2,1H3,(H,15,21)(H,16,18)(H,19,20)(H,22,23)",VDYDCVUWILIYQF-UHFFFAOYSA-N,S(C(=O)C(O)C)CC(NC(=O)CCC(N)C(O)=O)C(=O)NCC(O)=O,C7H8N4O2,379.38998,-4.8157,14,294.50,2,348.82108,1,2-amino-5-[[2-(carboxymethylamino)-1-(2-hydroxypropanoylsulfanylmethyl)-2-oxo-ethyl]amino]-5-oxo-pentanoic acid
"InChI=1S/C11H20N2O6/c12-7(10(16)17)3-1-2-6-13-8(11(18)19)4-5-9(14)15/h7-8,13H,1-6,12H2,(H,14,15)(H,16,17)(H,18,19)",ZDGJAHTZVHVLOT-UHFFFAOYSA-N,OC(=O)C(NCCCCC(N)C(O)=O)CCC(O)=O,C8H8O3,276.289,-2.8027,11,229.38,1,313.48575,0,2-[(5-amino-5-carboxy-pentyl)amino]pentanedioic acid
"InChI=1S/C3H7NO2/c1-4-2-3(5)6/h4H,2H2,1H3,(H,5,6)",FSYKKLYZXJSNPZ-UHFFFAOYSA-N,OC(=O)CNC,C8H9NO2,89.094002,-0.5960,2,80.25,0,162.07133,1,2-(methylamino)acetic acid
"InChI=1S/H2O4Se/c1-5(2,3)4/h(H2,1,2,3,4)",QYHFIVBSNOWOCQ-UHFFFAOYSA-N,[Se](O)(O)(=O)=O,C9H10O3,144.97499,-0.4100,0,46.63,0,215.95947,1,selenic acid
"InChI=1S/H2O3Se/c1-4(2)3/h(H2,1,2,3)/p-2",MCAHWIHFGHIESP-UHFFFAOYSA-L,[Se](=O)([O-])[O-],C9H8O2,126.96,0.3880,0,45.25,0,189.28049,0,selenite
"InChI=1S/H2O3Se/c1-4(2)3/h(H2,1,2,3)",MCAHWIHFGHIESP-UHFFFAOYSA-N,[Se](O)(O)=O,C10H11ClO3,128.976,-0.5600,0,45.25,0,202.16142,1,selenous acid
"InChI=1S/H3O3PSe/c1-4(2,3)5/h(H3,1,2,3,5)",JRPHGDYSKGJTKZ-UHFFFAOYSA-N,[SeH]P(O)(O)=O,C10H11N3O3S,160.95799,-1.2450,0,60.13,0,144.63423,0,selanylphosphonic acid
"InChI=1S/C13H19N6O9P/c14-5(1-20)13(23)28-29(24,25)26-2-6-8(21)9(22)12(27-6)19-4-18-7-10(15)16-3-17-11(7)19/h3-6,8-9,12,20-22H,1-2,14H2,(H,24,25)(H2,15,16,17)",UVSYURUCZPPUQD-UHFFFAOYSA-N,P(OCC1OC(n2c3ncnc(N)c3nc2)C(O)C1O)(OC(=O)C(N)CO)(O)=O,C10H12O3,434.302,-4.4009,8,319.63,2,439.58359,1,"[[5-(6-aminopurin-9-yl)-3,4-dihydroxy-tetrahydrofuran-2-yl]methoxy-hydroxy-phosphoryl] 2-amino-3-hydroxy-propanoate"
"InChI=1S/C7H10O5/c8-4-1-3(7(11)12)2-5(9)6(4)10/h1,4-6,8-10H,2H2,(H,11,12)",JXOHGGNKMLTUBP-UHFFFAOYSA-N,OC1C(O)CC(=CC1O)C(O)=O,C12H7Cl3O2,174.15199,-1.6260,1,135.25,0,225.18121,1,"3,4,5-trihydroxycyclohexene-1-carboxylic acid"
"InChI=1S/C7H11O8P/c8-4-1-3(7(10)11)2-5(6(4)9)15-16(12,13)14/h2,4-6,8-9H,1H2,(H,10,11)(H2,12,13,14)",QYOJSKGCWNAKGW-UHFFFAOYSA-N,P(OC1C=C(CC(O)C1O)C(O)=O)(O)(O)=O,C13H10N2O3S,254.131,-2.5130,3,167.00,0,323.82068,0,"4,5-dihydroxy-3-phosphonooxy-cyclohexene-1-carboxylic acid"
"InChI=1S/C42H50N4O16.Fe/c1-41(17-39(59)60)23(5-9-35(51)52)29-14-30-24(6-10-36(53)54)42(2,18-40(61)62)32(46-30)16-28-22(12-38(57)58)19(3-7-33(47)48)25(43-28)13-26-21(11-37(55)56)20(4-8-34(49)50)27(44-2 6)15-31(41)45-29;/h13-16,20-24,27-28H,3-12,17-18H2,1-2H",WICVUFIFCMZPRY-UHFFFAOYSA-M,[Fe+3].OC(=O)CC1(C=2[N-]C(=CC3=NC(=CC4[N-]C(C=C5[N-]C(C=2)C(CCC(O)=O)C5CC(O)=O)=C(CCC(O)=O)C4CC(O)=O)C(CC(O)=O)(C)C3CCC(O)=O)C1CCC(O)=O)C,C13H18O2,921.711,-0.1800,20,636.88,4,780.81793,1,"ferric;3-[(4<I>Z</I>,10<I>Z</I>,15<I>Z</I>,19<I>Z</I>)-7,13,17-tris(2-carboxyethyl)-3,8,12,18-tetrakis(carboxymethyl)-12,18-dimethyl-2,3,8,9,13,17-hexahydro-1<I>H</I>-porphyrin-21,22,24-triid-2-yl]pro panoic acid"
"InChI=1S/C42H52N4O16/c1-41(17-39(59)60)23(5-9-35(51)52)29-14-30-24(6-10-36(53)54)42(2,18-40(61)62)32(46-30)16-28-22(12-38(57)58)19(3-7-33(47)48)25(43-28)13-26-21(11-37(55)56)20(4-8-34(49)50)27(44-26)1 5-31(41)45-29/h13-16,20-24,27-28,43-45H,3-12,17-18H2,1-",ANGFWOBACQUTIY-UHFFFAOYSA-N,OC(=O)CC1(C=2N=C(C=C3NC(=CC4NC(=CC=5NC(C=2)C(CC(O)=O)C=5CCC(O)=O)C(CC(O)=O)C4CCC(O)=O)C(CC(O)=O)(C)C3CCC(O)=O)C1CCC(O)=O)C,C13H9Cl3N2O,868.88995,-0.0990,20,619.00,3,587.65863,0,"3-[(4<I>Z</I>,10<I>Z</I>,15<I>Z</I>,19<I>Z</I>)-7,13,17-tris(2-carboxyethyl)-3,8,12,18-tetrakis(carboxymethyl)-12,18-dimethyl-1,2,3,8,9,13,17,21,22,24-decahydroporphyrin-2-yl]propanoic acid"
"InChI=1S/C42H48N4O16/c1-41(17-39(59)60)23(5-9-35(51)52)29-14-27-21(11-37(55)56)19(3-7-33(47)48)25(43-27)13-26-20(4-8-34(49)50)22(12-38(57)58)28(44-26)15-31-42(2,18-40(61)62)24(6-10-36(53)54)30(46-31)1 6-32(41)45-29/h14-16,20,23-25,46H,3-13,17-18H2,1-2H3,(H",LMJHHAAWTOMXOQ-UHFFFAOYSA-N,OC(=O)CC1(C2=NC(=CC3=NC(CC4=NC(C=C5NC(=C2)C(CCC(O)=O)C5(CC(O)=O)C)=C(CC(O)=O)C4CCC(O)=O)C(CCC(O)=O)=C3CC(O)=O)C1CCC(O)=O)C,C14H12O3,864.85797,-0.5210,20,609.75,3,650.59283,1,"3-[(5<I>Z</I>,9<I>E</I>,14<I>Z</I>)-8,13,18-tris(2-carboxyethyl)-3,7,12,17-tetrakis(carboxymethyl)-7,12-dimethyl-2,8,13,19,20,22-hexahydroporphyrin-2-yl]propanoic acid"
"InChI=1S/H2O3S/c1-4(2)3/h(H2,1,2,3)/p-2",LSNNMFCWUKXFEE-UHFFFAOYSA-L,S(=O)([O-])[O-],C15H12N2O,80.063004,-1.8450,0,42.75,0,139.25681,1,sulfite
"InChI=1S/H2O3S/c1-4(2)3/h(H2,1,2,3)",LSNNMFCWUKXFEE-UHFFFAOYSA-N,S(O)(O)=O,C4H4KNO4S,82.079002,-1.7450,0,42.75,0,186.59912,0,sulfurous acid
"InChI=1S/C6H12O6/c7-1-3(9)5(11)6(12)4(10)2-8/h3,5-9,11-12H,1-2H2",BJHIKXHVCXFQLS-UHFFFAOYSA-N,OC(C(O)C(=O)CO)C(O)CO,C7H6O3,180.15599,-3.2620,5,135.63,0,213.43391,1,"1,3,4,5,6-pentahydroxyhexan-2-one"
"InChI=1S/C7H19N3/c8-4-1-2-6-10-7-3-5-9/h10H,1-9H2",ATHGHQPFGPMSJY-UHFFFAOYSA-N,N(CCCCN)CCCN,C7H8N4O2,145.25,-0.6070,7,144.88,0,158.50566,0,"<I>N</I>'-(3-aminopropyl)butane-1,4-diamine"
"InChI=1S/C10H26N4/c11-5-3-9-13-7-1-2-8-14-10-4-6-12/h13-14H,1-12H2",PFNFFQXMRSDOHW-UHFFFAOYSA-N,N(CCCCNCCCN)CCCN,C8H10N4O2,202.34599,-0.5560,11,200.63,1,173.28053,1,"<I>N</I>,<I>N</I>'-bis(3-aminopropyl)butane-1,4-diamine"
"InChI=1S/C18H37NO2/c1-2-3-4-5-6-7-8-9-10-11-12-13-14-15-18(21)17(19)16-20/h14-15,17-18,20-21H,2-13,16,19H2,1H3",WWUZIQQURGPMPG-UHFFFAOYSA-N,OC(\C=C\CCCCCCCCCCCCC)C(N)CO,C8H14ClN5,299.49899,4.3350,15,305.38,0,156.71367,1,"(<I>E</I>)-2-aminooctadec-4-ene-1,3-diol"
"InChI=1S/C30H50/c1-25(2)15-11-19-29(7)23-13-21-27(5)17-9-10-18-28(6)22-14-24-30(8)20-12-16-26(3)4/h15-18,23-24H,9-14,19-22H2,1-8H3",YYGNTYWPHWGJRM-UHFFFAOYSA-N,C(CCC=C(C)C)(=CCCC(=CCCC=C(CCC=C(CCC=C(C)C)C)C)C)C,C8H8O3,410.72998,10.6770,15,468.13,1,51.18811,0,"(6<I>E</I>,10<I>E</I>,14<I>E</I>,18<I>E</I>)-2,6,10,15,19,23-hexamethyltetracosa-2,6,10,14,18,22-hexaene"
"InChI=1S/C39H70N7O17P3S/c1-4-5-6-7-8-9-10-11-12-13-14-15-16-17-18-19-30(48)67-23-22-41-29(47)20-21-42-37(51)34(50)39(2,3)25-60-66(57,58)63-65(55,56)59-24-28-33(62-64(52,53)54)32(49)38(61-28)46-27-45-3 1-35(40)43-26-44-36(31)46/h26-28,32-34,38,49-50H,4-25H2",SIARJEKBADXQJG-UHFFFAOYSA-N,S(C(=O)CCCCCCCCCCCCCCCCC)CCNC(=O)CCNC(=O)C(O)C(COP(OP(OCC1OC(n2c3ncnc(N)c3nc2)C(O)C1OP(O)(O)=O)(O)=O)(O)=O)(C)C,C8H9NO2,1034.009,2.0721,38,810.38,3,600.02045,1,"<I>S</I>-[2-[3-[[4-[[[5-(6-aminopurin-9-yl)-4-hydroxy-3-phosphonooxy-tetrahydrofuran-2-yl]methoxy-hydroxy-phosphoryl]oxy-hydroxy-phosphoryl]oxy-2-hydroxy-3,3-dimethyl-butanoyl]amino]propanoylamino]eth yl] octadecanethioate"
"InChI=1S/C17H28O/c18-13-6-9-15-12(10-13)5-8-16-14-3-1-2-11(14)4-7-17(15)16/h11-18H,1-10H2",FPXSXMFOYWRHDX-UHFFFAOYSA-N,OC1CC2C(C3C(C4C(CC3)CCC4)CC2)CC1,C9H10O3,248.40999,4.4510,0,234.25,0,48.671482,0,"2,3,4,5,6,7,8,9,10,11,12,13,14,15,16,17-hexadecahydro-1<I>H</I>-cyclopenta[a]phenanthren-3-ol"
"InChI=1S/C17H28/c1-2-6-14-12(4-1)8-10-17-15-7-3-5-13(15)9-11-16(14)17/h12-17H,1-11H2",UACIBCPNAKBWHX-UHFFFAOYSA-N,C12C(C3C(CC1)CCCC3)CCC1C2CCC1,C9H8O2,232.411,8.3713,0,228.00,1,0,1,"2,3,4,5,6,7,8,9,10,11,12,13,14,15,16,17-hexadecahydro-1<I>H</I>-cyclopenta[a]phenanthrene"
"InChI=1S/C4H6O4/c5-3(6)1-2-4(7)8/h1-2H2,(H,5,6)(H,7,8)",KDYFGRWQOYBRFD-UHFFFAOYSA-N,OC(=O)CCC(O)=O,C10H11ClO3,118.088,-0.5240,3,93.38,0,186.01268,1,succinic acid
"InChI=1S/C25H40N7O19P3S/c1-25(2,20(38)23(39)28-6-5-14(33)27-7-8-55-16(36)4-3-15(34)35)10-48-54(45,46)51-53(43,44)47-9-13-19(50-52(40,41)42)18(37)24(49-13)32-12-31-17-21(26)29-11-30-22(17)32/h11-13,18- 20,24,37-38H,3-10H2,1-2H3,(H,27,33)(H,28,39)(H,34,35)(H",VNOYUJKHFWYWIR-UHFFFAOYSA-N,S(C(=O)CCC(O)=O)CCNC(=O)CCNC(=O)C(O)C(COP(OP(OCC1OC(n2c3ncnc(N)c3nc2)C(O)C1OP(O)(O)=O)(O)=O)(O)=O)(C)C,C10H11N3O3S,867.61298,-5.4779,25,608.38,3,700.60187,0,"4-[2-[3-[[4-[[[5-(6-aminopurin-9-yl)-4-hydroxy-3-phosphonooxy-tetrahydrofuran-2-yl]methoxy-hydroxy-phosphoryl]oxy-hydroxy-phosphoryl]oxy-2-hydroxy-3,3-dimethyl-butanoyl]amino]propanoylamino]ethylsulfa nyl]-4-oxo-butanoic acid"
"InChI=1S/C4H6O3/c5-3-1-2-4(6)7/h3H,1-2H2,(H,6,7)",UIUJIQZEACWQSV-UHFFFAOYSA-N,OC(=O)CCC=O,C10H12O3,102.089,-0.2740,3,88.88,0,155.32932,1,4-oxobutanoic acid
"InChI=1S/C16H24N4O10P2S/c1-10-13(33-9-20(10)8-12-7-18-11(2)19-16(12)17)5-6-28-31(24,25)30-32(26,27)29-15(23)4-3-14(21)22/h7,9,15,23H,3-6,8H2,1-2H3,(H4-,17,18,19,21,22,24,25,26,27)/p+1",JUWXHVVKSHTJQQ-UHFFFAOYSA-O,s1c[n+](Cc2cnc(nc2N)C)c(C)c1CCOP(OP(OC(O)CCC(O)=O)(O)=O)(O)=O,C12H7Cl3O2,527.40802,-1.3130,13,385.38,3,365.31021,0,4-[[2-[3-[(4-amino-2-methyl-pyrimidin-5-yl)methyl]-4-methyl-thiazol-3-ium-5-yl]ethoxy-hydroxy-phosphoryl]oxy-hydroxy-phosphoryl]oxy-4-hydroxy-butanoic acid