InChI,Key,smiles,Formula,Weight,logP(o/w),b_rotN,vol,lip_violation,ASA_P,Natural,ChemicalName
"InChI=1S/C20H32O5/c1-2-3-6-9-15(21)12-13-17-16(18-14-20(24-17)25-18)10-7-4-5-8-11-19(22)23/h4,7,12-13,15-18,20-21H,2-3,5-6,8-11,14H2,1H3,(H,22,23)",DSNBHJFQCNUKMA-UHFFFAOYSA-N,O1C2OC(C2)C(CC=CCCCC(O)=O)C1C=CC(O)CCCCC,C10H11ClO3,352.47098,3.7980,12,332.38,0,188.64,0,"(<I>E</I>)-7-[3-[(<I>E</I>)-3-hydroxyoct-1-enyl]-4,6-dioxabicyclo[3.1.1]heptan-2-yl]hept-5-enoic acid"
"InChI=1S/C20H34O5/c1-2-3-6-9-15(21)12-13-17-16(18(22)14-19(17)23)10-7-4-5-8-11-20(24)25/h12-13,15-17,19,21,23H,2-11,14H2,1H3,(H,24,25)",GMVPRGQOIOIIMI-UHFFFAOYSA-N,OC1CC(=O)C(CCCCCCC(O)=O)C1C=CC(O)CCCCC,C10H11N3O3S,354.487,3.0530,13,334.75,0,183.82753,1,7-[3-hydroxy-2-[(<I>E</I>)-3-hydroxyoct-1-enyl]-5-oxo-cyclopentyl]heptanoic acid
"InChI=1S/C3H7NO/c1-3(5)2-4/h2,4H2,1H3",BCDGQXUMWHRQCB-UHFFFAOYSA-N,O=C(CN)C,C10H12O3,73.095001,-0.9450,1,69.50,0,118.56158,0,1-aminopropan-2-one
"InChI=1S/C6H10N3O4P/c1-4-8-2-5(6(7)9-4)3-13-14(10,11)12/h2H,3H2,1H3,(H2,7,8,9)(H2,10,11,12)",PKYFHKIYHBRTPI-UHFFFAOYSA-N,P(OCc1cnc(nc1N)C)(O)(O)=O,C12H7Cl3O2,219.13699,-1.8170,3,163.50,0,231.21057,1,(4-amino-2-methyl-pyrimidin-5-yl)methyl dihydrogen phosphate
"InChI=1S/C6H11N3O7P2/c1-4-8-2-5(6(7)9-4)3-15-18(13,14)16-17(10,11)12/h2H,3H2,1H3,(H,13,14)(H2,7,8,9)(H2,10,11,12)",AGQJQCFEPUVXNK-UHFFFAOYSA-N,P(OCc1cnc(nc1N)C)(OP(O)(O)=O)(O)=O,C13H10N2O3S,299.116,-2.6990,5,195.75,0,319.44611,1,(4-amino-2-methyl-pyrimidin-5-yl)methyl phosphono hydrogen phosphate
"InChI=1S/C7H9N5O2/c8-7-11-5-4(6(14)12-7)10-3(2-13)1-9-5/h13H,1-2H2,(H4,8,9,11,12,14)",CQQNNQTXUGLUEV-UHFFFAOYSA-N,Oc1nc(nc2NCC(=Nc12)CO)N,C13H18O2,195.18199,-2.0320,1,159.13,0,294.72705,0,"2-amino-6-(hydroxymethyl)-7,8-dihydropteridin-4-ol"
"InChI=1S/C4H7NO3/c1-2(6)3(5)4(7)8/h3H,5H2,1H3,(H,7,8)",SAUCHDKDCUROAO-UHFFFAOYSA-N,OC(=O)C(N)C(=O)C,C13H9Cl3N2O,117.104,-3.7177,2,94.63,0,186.39291,1,2-amino-3-oxo-butanoic acid
"InChI=1S/C10H16NO3PS/c1-3-12-15(16,13-4-2)14-10-7-5-9(11)6-8-10/h5-8H,3-4,11H2,1-2H3",XIZOTXGJXSTQDI-UHFFFAOYSA-N,S=P(Oc1ccc(N)cc1)(OCC)OCC,C14H12O3,261.28201,2.4590,6,208.88,0,140.95459,0,4-diethoxyphosphinothioyloxyaniline
"InChI=1S/C9H16N4O6/c10-5-7(12-9(19)13-8(5)18)11-1-3(15)6(17)4(16)2-14/h3-4,6,14-17H,1-2,10H2,(H3,11,12,13,18,19)",XKQZIXVJVUPORE-UHFFFAOYSA-N,O=C1NC(=O)NC(NCC(O)C(O)C(O)CO)=C1N,C15H12N2O,276.24899,-3.7510,6,211.25,1,383.96964,1,"5-amino-6-(2,3,4,5-tetrahydroxypentylamino)-1<I>H</I>-pyrimidine-2,4-dione"
InChI=1S/H3N/h1H3,QGZKDVFQNNGYKY-UHFFFAOYSA-N,N,C4H4KNO4S,17.031,-0.0620,0,15.38,0,131.24501,1,ammonia
InChI=1S/H3N/h1H3/p+1,QGZKDVFQNNGYKY-UHFFFAOYSA-O,[NH4+],C7H6O3,18.039,-0.0620,0,15.38,0,141.133,0,ammonium
"InChI=1S/C10H14N5O7P/c11-8-5-9(13-2-12-8)15(3-14-5)10-7(17)6(16)4(22-10)1-21-23(18,19)20/h2-4,6-7,10,16-17H,1H2,(H2,11,12,13)(H2,18,19,20)",UDMBCSSLTHHNCD-UHFFFAOYSA-N,P(OCC1OC(n2c3ncnc(N)c3nc2)C(O)C1O)(O)(O)=O,C7H8N4O2,347.224,-3.2059,4,249.50,2,395.35416,1,"[5-(6-aminopurin-9-yl)-3,4-dihydroxy-tetrahydrofuran-2-yl]methyl dihydrogen phosphate"
"InChI=1S/C19H30O2/c1-18-9-7-13(20)11-12(18)3-4-14-15-5-6-17(21)19(15,2)10-8-16(14)18/h12-16,20H,3-11H2,1-2H3",QGXBDMJGAMFCBF-UHFFFAOYSA-N,OC1CC2CCC3C4CCC(=O)C4(CCC3C2(CC1)C)C,C8H10N4O2,290.44699,3.6230,0,248.00,0,83.857315,0,"3-hydroxy-10,13-dimethyl-1,2,3,4,5,6,7,8,9,11,12,14,15,16-tetradecahydrocyclopenta[a]phenanthren-17-one"
"InChI=1S/CH6NOP/c2-1(3)4/h1,3H,2,4H2",FBVWYYILRHVALZ-UHFFFAOYSA-N,PC(O)N,C8H14ClN5,79.039001,-1.2940,0,56.63,0,154.96272,1,amino(phosphanyl)methanol
"InChI=1S/C7H7NO2/c8-6-4-2-1-3-5(6)7(9)10/h1-4H,8H2,(H,9,10)",RWZYAGGXGHYGMB-UHFFFAOYSA-N,OC(=O)c1ccccc1N,C8H8O3,137.138,0.9090,1,125.38,0,136.99295,1,2-aminobenzoic acid
"InChI=1S/C10H14N5O10PS/c11-8-5-9(13-2-12-8)15(3-14-5)10-7(17)6(16)4(24-10)1-23-26(18,19)25-27(20,21)22/h2-4,6-7,10,16-17H,1H2,(H,18,19)(H2,11,12,13)(H,20,21,22)",IRLPACMLTUPBCL-UHFFFAOYSA-N,S(OP(OCC1OC(n2c3ncnc(N)c3nc2)C(O)C1O)(O)=O)(O)(=O)=O,C8H9NO2,427.28699,-3.5059,6,281.75,2,441.63635,0,"[5-(6-aminopurin-9-yl)-3,4-dihydroxy-tetrahydrofuran-2-yl]methyl sulfo hydrogen phosphate"
"InChI=1S/C5H10O5/c6-2-1-10-5(9)4(8)3(2)7/h2-9H,1H2",SRBFZHDQGSBBOR-UHFFFAOYSA-N,O1CC(O)C(O)C(O)C1O,C9H10O3,150.12999,-2.3590,0,107.63,0,177.90913,1,"tetrahydropyran-2,3,4,5-tetrol"
"InChI=1S/C5H11O8P/c6-1-3(7)5(9)4(8)2-13-14(10,11)12/h1,3-5,7-9H,2H2,(H2,10,11,12)",PPQRONHOSHZGFQ-UHFFFAOYSA-N,P(OCC(O)C(O)C(O)C=O)(O)(O)=O,C9H8O2,230.10899,-3.2550,6,149.25,0,295.31671,0,"(2,3,4-trihydroxy-5-oxo-pentyl) dihydrogen phosphate"
"InChI=1S/C20H32O2/c1-2-3-4-5-6-7-8-9-10-11-12-13-14-15-16-17-18-19-20(21)22/h6-7,9-10,12-13,15-16H,2-5,8,11,14,17-19H2,1H3,(H,21,22)",YZXBAPSDXZZRGB-UHFFFAOYSA-N,OC(=O)CCC\C=C\C\C=C\C\C=C\C\C=C\CCCCC,C10H11ClO3,304.474,5.1800,14,326.13,1,189.41495,1,"(5<I>E</I>,8<I>E</I>,11<I>E</I>,14<I>E</I>)-icosa-5,8,11,14-tetraenoic acid"
"InChI=1S/C6H14N4O2/c7-4(5(11)12)2-1-3-10-6(8)9/h4H,1-3,7H2,(H,11,12)(H4,8,9,10)",ODKSFYDXXFIFQN-UHFFFAOYSA-N,OC(=O)C(N)CCCNC(N)=N,C10H11N3O3S,174.20399,-3.1967,6,147.38,1,284.50616,1,2-amino-5-guanidino-pentanoic acid
"InChI=1S/AsH3O4/c2-1(3,4)5/h(H3,2,3,4,5)/p-2",DJHGAFSJWGLOIV-UHFFFAOYSA-L,[As](O)(=O)([O-])[O-],C10H12O3,139.92599,0.0640,0,46.63,0,207.37033,0,hydrogen arsorate
"InChI=1S/AsH3O4/c2-1(3,4)5/h(H3,2,3,4,5)",DJHGAFSJWGLOIV-UHFFFAOYSA-N,[As](O)(O)(O)=O,C12H7Cl3O2,141.942,-0.8840,0,46.63,0,220.89854,1,arsoric acid
"InChI=1S/C6H8O6/c7-1-2(8)5-3(9)4(10)6(11)12-5/h2,5,7-8,10-11H,1H2",TYQCGQRIZGCHNB-UHFFFAOYSA-N,O1C(C(O)CO)C(=O)C(O)=C1O,C13H10N2O3S,176.12399,-1.3500,2,130.63,0,225.18292,0,"2-(1,2-dihydroxyethyl)-4,5-dihydroxy-furan-3-one"
"InChI=1S/C4H8N2O3/c5-2(4(8)9)1-3(6)7/h2H,1,5H2,(H2,6,7)(H,8,9)",DCXYFEDJOCDNAF-UHFFFAOYSA-N,OC(=O)C(N)CC(=O)N,C13H18O2,132.119,-4.5397,3,105.13,0,251.01883,1,"2,4-diamino-4-oxo-butanoic acid"
"InChI=1S/C23H30ClN3O/c1-5-27(6-2)13-7-8-16(3)25-23-19-11-9-17(24)14-22(19)26-21-12-10-18(28-4)15-20(21)23/h9-12,14-16H,5-8,13H2,1-4H3,(H,25,26)",GPKJTRJOBQGKQK-UHFFFAOYSA-N,Clc1cc2nc3c(cc(OC)cc3)c(NC(CCCN(CC)CC)C)c2cc1,C13H9Cl3N2O,399.966,5.7120,9,378.50,1,86.259789,1,"<I>N</I>4-(6-chloro-2-methoxy-acridin-9-yl)-<I>N</I>1,<I>N</I>1-diethyl-pentane-1,4-diamine"
"InChI=1S/C10H16N5O13P3/c11-8-5-9(13-2-12-8)15(3-14-5)10-7(17)6(16)4(26-10)1-25-30(21,22)28-31(23,24)27-29(18,19)20/h2-4,6-7,10,16-17H,1H2,(H,21,22)(H,23,24)(H2,11,12,13)(H2,18,19,20)",ZKHQWZAMYRWXGA-UHFFFAOYSA-N,P(OCC1OC(n2c3ncnc(N)c3nc2)C(O)C1O)(OP(OP(O)(O)=O)(O)=O)(O)=O,C14H12O3,507.18201,-4.9699,8,312.63,3,523.46039,0,"[[5-(6-aminopurin-9-yl)-3,4-dihydroxy-tetrahydrofuran-2-yl]methoxy-hydroxy-phosphoryl] phosphono hydrogen phosphate"
"InChI=1S/C3H7NO2/c4-2-1-3(5)6/h1-2,4H2,(H,5,6)",UCMIRNVEIXFBKS-UHFFFAOYSA-N,OC(=O)CCN,C15H12N2O,89.094002,-1.0330,2,75.38,0,173.80513,1,3-aminopropanoic acid
InChI=1S/C7H6O/c8-6-7-4-2-1-3-5-7/h1-6H,HUMNYLRZRPPJDN-UHFFFAOYSA-N,O=Cc1ccccc1,C4H4KNO4S,106.124,1.8330,1,112.25,0,63.753567,0,benzaldehyde
InChI=1S/C6H6/c1-2-4-6-5-3-1/h1-6H,UHOVQNZJYSORNB-UHFFFAOYSA-N,c1ccccc1,C7H6O3,78.113998,1.9060,0,91.88,0,0,1,benzene
"InChI=1S/C7H6O2/c8-7(9)6-4-2-1-3-5-6/h1-5H,(H,8,9)/p-1",WPYMKLBDIGXBTP-UHFFFAOYSA-M,O=C([O-])c1ccccc1,C7H8N4O2,121.115,1.7040,1,119.75,0,93.018196,1,benzoate
"InChI=1S/C7H6O2/c8-7(9)6-4-2-1-3-5-6/h1-5H,(H,8,9)",WPYMKLBDIGXBTP-UHFFFAOYSA-N,OC(=O)c1ccccc1,C8H10N4O2,122.12299,1.5830,1,119.75,0,96.722359,0,benzoic acid
"InChI=1S/C14H25NO11/c1-4(18)15-7-9(20)12(6(3-17)24-13(7)23)26-14-11(22)10(21)8(19)5(2-16)25-14/h5-14,16-17,19-23H,2-3H2,1H3,(H,15,18)",KFEUJDWYNGMDBV-UHFFFAOYSA-N,O1C(CO)C(OC2OC(CO)C(O)C(O)C2O)C(O)C(NC(=O)C)C1O,C8H14ClN5,383.35001,-4.9010,6,277.00,2,319.17053,1,"<I>N</I>-[2,4-dihydroxy-6-(hydroxymethyl)-5-[3,4,5-trihydroxy-6-(hydroxymethyl)tetrahydropyran-2-yl]oxy-tetrahydropyran-3-yl]acetamide"
"InChI=1S/C19H30O5S/c1-18-9-7-13(24-25(21,22)23)11-12(18)3-4-14-15-5-6-17(20)19(15,2)10-8-16(14)18/h12-16H,3-11H2,1-2H3,(H,21,22,23)",ZMITXKRGXGRMKS-UHFFFAOYSA-N,S(OC1CC2CCC3C4CCC(=O)C4(CCC3C2(CC1)C)C)(O)(=O)=O,C8H8O3,370.50998,3.3180,2,281.63,0,164.60297,0,"(10,13-dimethyl-17-oxo-1,2,3,4,5,6,7,8,9,11,12,14,15,16-tetradecahydrocyclopenta[a]phenanthren-3-yl) hydrogen sulfate"
"InChI=1S/C5H11NO2/c1-6(2,3)4-5(7)8/h4H2,1-3H3",KWIUHFFTVRNATP-UHFFFAOYSA-N,O=C([O-])C[N+](C)(C)C,C8H9NO2,117.14799,-0.5280,2,104.88,0,141.43257,1,2-(trimethylammonio)acetate
"InChI=1S/C5H11NO2/c1-6(2,3)4-5(7)8/h4H2,1-3H3/p+1",KWIUHFFTVRNATP-UHFFFAOYSA-O,OC(=O)C[N+](C)(C)C,C9H10O3,118.156,-0.6490,2,104.88,0,148.48061,1,carboxymethyl(trimethyl)ammonium
"InChI=1S/C5H12NO/c1-6(2,3)4-5-7/h5H,4H2,1-3H3/q+1",SXKNCCSPZDCRFD-UHFFFAOYSA-N,O=CC[N+](C)(C)C,C9H8O2,102.157,-0.3990,2,101.50,0,111.65471,0,trimethyl(2-oxoethyl)ammonium
"InChI=1S/C33H36N4O6/c1-7-20-19(6)32(42)37-27(20)14-25-18(5)23(10-12-31(40)41)29(35-25)15-28-22(9-11-30(38)39)17(4)24(34-28)13-26-16(3)21(8-2)33(43)36-26/h7-8,13-14,34-35H,1-2,9-12,15H2,3-6H3,(H,36,43) (H,37,42)(H,38,39)(H,40,41)",BPYKTIZUTYGOLE-UHFFFAOYSA-N,O=C1N\C(=C/c2[nH]c(Cc3[nH]c(\C=C\4/NC(=O)C(C)=C/4C=C)c(C)c3CCC(O)=O)c(CCC(O)=O)c2C)\C(C)=C1C=C,C10H11ClO3,584.67297,3.8400,12,541.13,2,359.79352,1,3-[2-[[3-(2-carboxyethyl)-4-methyl-5-[(<I>Z</I>)-(4-methyl-5-oxo-3-vinyl-pyrrol-2-ylidene)methyl]-1<I>H</I>-pyrrol-2-yl]methyl]-4-methyl-5-[(<I>Z</I>)-(3-methyl-5-oxo-4-vinyl-pyrrol-2-ylidene)methyl]- 1<I>H</I>-pyrrol-3-yl]propanoic acid
"InChI=1S/C33H34N4O6/c1-7-20-19(6)32(42)37-27(20)14-25-18(5)23(10-12-31(40)41)29(35-25)15-28-22(9-11-30(38)39)17(4)24(34-28)13-26-16(3)21(8-2)33(43)36-26/h7-8,13-15,34-35H,1-2,9-12H2,3-6H3,(H,37,42)(H, 38,39)(H,40,41)",RCNSAJSGRJSBKK-UHFFFAOYSA-N,O=C1NC(=Cc2[nH]c(C=C3NC(=CC4=NC(=O)C(C=C)=C4C)C(C)=C3CCC(O)=O)c(CCC(O)=O)c2C)C(C=C)=C1C,C10H11N3O3S,582.65698,4.0550,11,541.13,1,391.08939,0,"3-[(2<I>Z</I>,5<I>E</I>)-2-[[3-(2-carboxyethyl)-4-methyl-5-[(<I>Z</I>)-(4-methyl-5-oxo-3-vinyl-pyrrol-2-ylidene)methyl]-1<I>H</I>-pyrrol-2-yl]methylene]-4-methyl-5-[(3-methyl-5-oxo-4-vinyl-pyrrol-2-yl )methylene]pyrrol-3-yl]propanoic acid"
"InChI=1S/C9H13N5O3/c1-3(15)6(16)4-2-11-7-5(12-4)8(17)14-9(10)13-7/h3,6,15-16H,2H2,1H3,(H4,10,11,13,14,17)",FEMXZDUTFRTWPE-UHFFFAOYSA-N,O=C1N=C(NC=2NCC(=NC1=2)C(O)C(O)C)N,C10H12O3,239.235,-1.4460,2,192.88,1,289.20285,1,"2-amino-6-(1,2-dihydroxypropyl)-7,8-dihydro-1<I>H</I>-pteridin-4-one"
"InChI=1S/C10H16N2O3S/c13-8(14)4-2-1-3-7-9-6(5-16-7)11-10(15)12-9/h6-7,9H,1-5H2,(H,13,14)(H2,11,12,15)",YBJHBAHKTGYVGT-UHFFFAOYSA-N,S1CC2NC(=O)NC2C1CCCCC(O)=O,C12H7Cl3O2,244.315,0.3190,5,195.88,0,254.78171,1,"5-(2-oxo-1,3,3<I>a</I>,4,6,6<I>a</I>-hexahydrothieno[3,4-d]imidazol-4-yl)pentanoic acid"
"InChI=1S/C12H10O2/c13-11-8-4-7-10(12(11)14)9-5-2-1-3-6-9/h1-8,13-14H",YKOQAAJBYBTSBS-UHFFFAOYSA-N,Oc1c(cccc1O)-c1ccccc1,C13H10N2O3S,186.20999,3.2460,1,182.75,0,78.101921,0,"3-phenylbenzene-1,2-diol"
"InChI=1S/C12H9N2O8P/c15-13(16)9-1-5-11(6-2-9)21-23(19,20)22-12-7-3-10(4-8-12)14(17)18/h1-8H,(H,19,20)",MHSVUSZEHNVFKW-UHFFFAOYSA-N,P(Oc1ccc([N+](=O)[O-])cc1)(Oc1ccc([N+](=O)[O-])cc1)(O)=O,C13H18O2,340.18399,2.3300,6,258.63,0,252.48701,1,bis(4-nitrophenyl) hydrogen phosphate
"InChI=1S/C68H129N2O20P/c1-5-9-13-17-21-25-29-33-37-41-51(72)45-57(76)69-61-65(88-59(78)47-53(74)43-39-35-31-27-23-19-15-11-7-3)63(80)55(49-71)86-67(61)85-50-56-64(81)66(89-60(79)48-54(75)44-40-36-32-2 8-24-20-16-12-8-4)62(68(87-56)90-91(82,83)84)70-58(77)4",HLDJGHAAKRKPAV-UHFFFAOYSA-N,P(OC1OC(COC2OC(CO)C(O)C(OC(=O)CC(O)CCCCCCCCCCC)C2NC(=O)CC(O)CCCCCCCCCCC)C(O)C(OC(=O)CC(O)CCCCCCCCCCC)C1NC(=O)CC(O)CCCCCCCCCCC)(O)(O)=O,C13H9Cl3N2O,1325.7479,12.6250,62,1167.75,4,372.08902,0,[5-hydroxy-2-[[3-hydroxy-5-(3-hydroxytetradecanoylamino)-4-(3-hydroxytetradecanoyloxy)-6-phosphonooxy-tetrahydropyran-2-yl]methoxy]-6-(hydroxymethyl)-3-(3-hydroxytetradecanoylamino)tetrahydropyran-4-y l] 3-hydroxytetradecanoate
"InChI=1S/C34H66NO12P/c1-3-5-7-9-11-13-15-17-19-21-26(37)23-29(39)35-31-33(32(41)28(25-36)45-34(31)47-48(42,43)44)46-30(40)24-27(38)22-20-18-16-14-12-10-8-6-4-2/h26-28,31-34,36-38,41H,3-25H2,1-2H3,(H,3 5,39)(H2,42,43,44)",HEHQDWUWJVPREQ-UHFFFAOYSA-N,P(OC1OC(CO)C(O)C(OC(=O)CC(O)CCCCCCCCCCC)C1NC(=O)CC(O)CCCCCCCCCCC)(O)(O)=O,C14H12O3,711.87097,5.3610,31,613.38,3,336.34958,1,[3-hydroxy-2-(hydroxymethyl)-5-(3-hydroxytetradecanoylamino)-6-phosphonooxy-tetrahydropyran-4-yl] 3-hydroxytetradecanoate
"InChI=1S/C17H26N8O5/c1-24(16(20)21)6-4-9(18)8-12(26)22-10-2-3-13(30-14(10)15(27)28)25-7-5-11(19)23-17(25)29/h2-3,5,7,9-10,13-14H,4,6,8,18H2,1H3,(H3,20,21)(H,22,26)(H,27,28)(H2,19,23,29)",CXNPLSGKWMLZPZ-UHFFFAOYSA-N,O1C(C(O)=O)C(NC(=O)CC(N)CCN(C(N)=N)C)C=CC1N1C=CC(=NC1=O)N,C15H12N2O,422.44598,-1.9710,10,363.38,2,474.04459,1,"3-[[3-amino-5-[carbamimidoyl(methyl)amino]pentanoyl]amino]-6-(4-amino-2-oxo-pyrimidin-1-yl)-3,6-dihydro-2<I>H</I>-pyran-2-carboxylic acid"
InChI=1S/BrH/h1H/p-1,CPELXLSAUQHCOX-UHFFFAOYSA-M,[Br-],C4H4KNO4S,79.903999,1.0730,0,38.13,0,153.93803,0,bromide
InChI=1S/BrH/h1H,CPELXLSAUQHCOX-UHFFFAOYSA-N,Br,C7H6O3,80.912003,1.2380,0,38.13,0,0,1,hydrogen bromide
"InChI=1S/C4H8O/c1-2-3-4-5/h4H,2-3H2,1H3",ZTQSAGDEMFDKMZ-UHFFFAOYSA-N,O=CCCC,C7H8N4O2,72.106995,1.0880,2,77.38,0,65.089348,0,butanal
"InChI=1S/C4H10O/c1-2-3-4-5/h5H,2-4H2,1H3",LRHPLDYGYMQRHN-UHFFFAOYSA-N,OCCCC,C8H10N4O2,74.123001,0.9930,2,77.38,0,55.512344,1,butan-1-ol
"InChI=1S/C4H8O2/c1-2-3-4(5)6/h2-3H2,1H3,(H,5,6)",FERIUCNNQQJTOY-UHFFFAOYSA-N,OC(=O)CCC,C8H14ClN5,88.105995,0.8380,2,83.88,0,93.87722,1,butyric acid
"InChI=1S/C25H42N7O17P3S/c1-4-5-16(34)53-9-8-27-15(33)6-7-28-23(37)20(36)25(2,3)11-46-52(43,44)49-51(41,42)45-10-14-19(48-50(38,39)40)18(35)24(47-14)32-13-31-17-21(26)29-12-30-22(17)32/h12-14,18-20,24, 35-36H,4-11H2,1-3H3,(H,27,33)(H,28,37)(H,41,42)(H,43,44",CRFNGMNYKDXRTN-UHFFFAOYSA-N,S(C(=O)CCC)CCNC(=O)CCNC(=O)C(O)C(COP(OP(OCC1OC(n2c3ncnc(N)c3nc2)C(O)C1OP(O)(O)=O)(O)=O)(O)=O)(C)C,C8H8O3,837.63098,-4.1159,24,595.50,3,593.60925,0,"<I>S</I>-[2-[3-[[4-[[[5-(6-aminopurin-9-yl)-4-hydroxy-3-phosphonooxy-tetrahydrofuran-2-yl]methoxy-hydroxy-phosphoryl]oxy-hydroxy-phosphoryl]oxy-2-hydroxy-3,3-dimethyl-butanoyl]amino]propanoylamino]eth yl] butanethioate"
"InChI=1S/C4H9O5P/c1-2-3-4(5)9-10(6,7)8/h2-3H2,1H3,(H2,6,7,8)",JSHMCUNOMIZJDJ-UHFFFAOYSA-N,P(OC(=O)CCC)(O)(O)=O,C8H9NO2,168.08499,-0.3970,4,115.88,0,179.20215,1,phosphono butanoate
"InChI=1S/C41H65N9O28P2/c1-15(32(58)45-17(3)37(62)63)44-35(61)21(8-6-7-20(42)38(64)65)47-25(53)10-9-22(39(66)67)48-33(59)16(2)43-34(60)18(4)74-31-27(46-19(5)52)40(76-23(13-51)29(31)56)77-80(71,72)78-79 (69,70)73-14-24-28(55)30(57)36(75-24)50-12-11-26(54)49-",IMWOXEZVYQDRDF-UHFFFAOYSA-N,P(OC1OC(CO)C(O)C(OC(C(=O)NC(C(=O)NC(CCC(=O)NC(CCCC(N)C(O)=O)C(=O)NC(C(=O)NC(C(O)=O)C)C)C(O)=O)C)C)C1NC(=O)C)(OP(OCC1OC(N2C=CC(=O)NC2=O)C(O)C1O)(O)=O)(O)=O,C9H10O3,1193.954,-11.2407,37,884.50,3,804.05127,0,"6-[[4-[2-[2-[3-acetamido-2-[[[5-(2,4-dioxopyrimidin-1-yl)-3,4-dihydroxy-tetrahydrofuran-2-yl]methoxy-hydroxy-phosphoryl]oxy-hydroxy-phosphoryl]oxy-5-hydroxy-6-(hydroxymethyl)tetrahydropyran-4-yl]oxypr opanoylamino]propanoylamino]-4-carboxy-butanoyl]amino]-2-amino-7-[[2-(1-carboxyethylamino)-1-methyl-2-oxo-ethyl]amino]-7-oxo-heptanoic acid"
"InChI=1S/C40H65N9O26P2/c1-16(32(58)44-18(3)38(63)64)43-35(61)21(8-6-7-12-41)47-36(62)22(9-10-26(53)54)46-33(59)17(2)42-34(60)19(4)71-31-27(45-20(5)51)39(73-23(14-50)29(31)56)74-77(68,69)75-76(66,67)70 -15-24-28(55)30(57)37(72-24)49-13-11-25(52)48-40(49)65/",QAXSYKNMKWGHOF-UHFFFAOYSA-N,P(OC1OC(CO)C(O)C(OC(C(=O)NC(C(=O)NC(CCC(O)=O)C(=O)NC(CCCCN)C(=O)NC(C(=O)NC(C(O)=O)C)C)C)C)C1NC(=O)C)(OP(OCC1OC(N2C=CC(=O)NC2=O)C(O)C1O)(O)=O)(O)=O,C9H8O2,1149.9449,-8.4680,36,847.00,3,705.22369,1,"4-[2-[2-[3-acetamido-2-[[[5-(2,4-dioxopyrimidin-1-yl)-3,4-dihydroxy-tetrahydrofuran-2-yl]methoxy-hydroxy-phosphoryl]oxy-hydroxy-phosphoryl]oxy-5-hydroxy-6-(hydroxymethyl)tetrahydropyran-4-yl]oxypropan oylamino]propanoylamino]-5-[[5-amino-1-[[2-(1-carboxyethylamino)-1-methyl-2-oxo-ethyl]carbamoyl]pentyl]amino]-5-oxo-pentanoic acid"
"InChI=1S/C87H143N7O23P2/c1-56(2)29-18-30-57(3)31-19-32-58(4)33-20-34-59(5)35-21-36-60(6)37-22-38-61(7)39-23-40-62(8)41-24-42-63(9)43-25-44-64(10)45-26-46-65(11)47-27-48-66(12)53-54-113-118(109,110)117 -119(111,112)116-87-77(92-71(17)96)79(78(98)75(55-95)11",PNWZQTONLRRPST-UHFFFAOYSA-N,P(OC1OC(CO)C(O)C(OC(C(=O)NC(C(=O)NC(CCC(=O)NC(CCCC(N)C(O)=O)C(=O)NC(C(=O)NC(C(O)=O)C)C)C(O)=O)C)C)C1NC(=O)C)(OP(OCC=C(CCC=C(CCC=C(CCC=C(CCC=C(CCC=C(CCC=C(CCC=C(CCC=C(CCC=C(CCC=C(C)C)C)C)C)C)C)C)C)C)C)C)(O)=O)(O)=O,C10H11ClO3,1717.075,0.6573,66,1512.88,4,475.07101,1,"6-[[4-[2-[2-[3-acetamido-5-hydroxy-2-[hydroxy-[hydroxy-[(2<I>E</I>,6<I>Z</I>,10<I>E</I>,14<I>E</I>,18<I>E</I>,22<I>E</I>,26<I>E</I>,30<I>E</I>,34<I>Z</I>,38<I>Z</I>)-3,7,11,15,19,23,27,31,35,39,43-und ecamethyltetratetraconta-2,6,10,14,18,22,26,30,34,38,42-undecaenoxy]phosphoryl]oxy-phosphoryl]oxy-6-(hydroxymethyl)tetrahydropyran-4-yl]oxypropanoylamino]propanoylamino]-4-carboxy-butanoyl]amino]-2-am ino-7-[[2-(1-carboxyethylamino)-1-methyl-2-oxo-ethyl]amino]-7-oxo-heptanoic acid"
"InChI=1S/C95H156N8O28P2/c1-58(2)30-19-31-59(3)32-20-33-60(4)34-21-35-61(5)36-22-37-62(6)38-23-39-63(7)40-24-41-64(8)42-25-43-65(9)44-26-45-66(10)46-27-47-67(11)48-28-49-68(12)54-55-125-132(121,122)131 -133(123,124)130-95-82(101-74(18)107)86(85(79(57-105)12",OXJNZXDFVLDLEI-UHFFFAOYSA-N,P(OC1OC(CO)C(OC2OC(CO)C(O)C(O)C2NC(=O)C)C(OC(C(=O)NC(C(=O)NC(CCC(=O)NC(CCCC(N)C(O)=O)C(=O)NC(C(=O)NC(C(O)=O)C)C)C(O)=O)C)C)C1NC(=O)C)(OP(OCC=C(CCC=C(CCC=C(CCC=C(CCC=C(CCC=C(CCC=C(CCC=C(CCC=C(CCC=C(CCC=C(C)C)C)C)C)C)C)C)C)C)C)C)(O)=O)(O)=O,C10H11N3O3S,1920.2689,-1.5600,71,1677.00,4,660.14294,0,"6-[[4-[2-[2-[3-acetamido-5-[3-acetamido-4,5-dihydroxy-6-(hydroxymethyl)tetrahydropyran-2-yl]oxy-2-[hydroxy-[hydroxy-[(2<I>E</I>,6<I>E</I>,10<I>E</I>,14<I>E</I>,18<I>E</I>,22<I>E</I>,26<I>E</I>,30<I>E< /I>,34<I>E</I>,38<I>E</I>)-3,7,11,15,19,23,27,31,35,39,43-undecamethyltetratetraconta-2,6,10,14,18,22,26,30,34,38,42-undecaenoxy]phosphoryl]oxy-phosphoryl]oxy-6-(hydroxymethyl)tetrahydropyran-4-yl]oxy propanoylamino]propanoylamino]-4-carboxy-butanoyl]amino]-2-amino-7-[[2-(1-carboxyethylamino)-1-methyl-2-oxo-ethyl]amino]-7-oxo-heptanoic acid"
InChI=1S/Ca/q+2,BHPQYMZQTOCNFJ-UHFFFAOYSA-N,[Ca+2],C10H12O3,40.077999,-0.0620,0,31.38,0,142.71501,1,calcium(2+)
"InChI=1S/C10H12N5O6P/c11-8-5-9(13-2-12-8)15(3-14-5)10-6(16)7-4(20-10)1-19-22(17,18)21-7/h2-4,6-7,10,16H,1H2,(H,17,18)(H2,11,12,13)",IVOMOUWHDPKRLL-UHFFFAOYSA-N,P1(OC2C(OC(n3c4ncnc(N)c4nc3)C2O)CO1)(O)=O,C12H7Cl3O2,329.20898,-2.4209,1,238.63,1,315.68515,0,"6-(6-aminopurin-9-yl)-2-hydroxy-2-oxo-4<I>a</I>,6,7,7<I>a</I>-tetrahydro-4<I>H</I>-furo[3,2-d][1,3,2]dioxaphosphinin-7-ol"
"InChI=1S/C5H12N4O3/c6-3(4(10)11)1-2-12-9-5(7)8/h3H,1-2,6H2,(H,10,11)(H4,7,8,9)",FSBIGDSBMBYOPN-UHFFFAOYSA-N,O(N=C(N)N)CCC(N)C(O)=O,C13H10N2O3S,176.17599,-3.3427,5,140.88,1,304.89893,1,2-amino-4-guanidinooxy-butanoic acid
"InChI=1S/CH3NO2/c2-1(3)4/h2H2,(H,3,4)/p-1",KXDHJXZQYSOELW-UHFFFAOYSA-M,O=C([O-])N,C13H18O2,60.031998,-0.6700,0,45.00,0,177.0764,1,carbamate
"InChI=1S/CH3NO2/c2-1(3)4/h2H2,(H,3,4)",KXDHJXZQYSOELW-UHFFFAOYSA-N,OC(=O)N,C13H9Cl3N2O,61.039997,-0.7910,0,45.00,0,188.08113,0,carbamic acid
"InChI=1S/CH4NO5P/c2-1(3)7-8(4,5)6/h(H2,2,3)(H2,4,5,6)",FFQKYPRQEYGKAF-UHFFFAOYSA-N,P(OC(=O)N)(O)(O)=O,C14H12O3,141.019,-2.0260,2,79.75,0,268.53467,1,phosphono carbamate
"InChI=1S/C5H8N2O5/c6-5(12)7-2(4(10)11)1-3(8)9/h2H,1H2,(H,8,9)(H,10,11)(H3,6,7,12)",HLKXYZVTANABHZ-UHFFFAOYSA-N,OC(=O)C(NC(=O)N)CC(O)=O,C15H12N2O,176.12799,-1.9500,5,129.00,0,294.48621,0,2-ureidobutanedioic acid
InChI=1S/CO2/c2-1-3,CURLTUGMZLYLDI-UHFFFAOYSA-N,O=C=O,C4H4KNO4S,44.008999,-0.5610,0,34.88,0,146.33719,1,carbon dioxide
InChI=1S/CO/c1-2,UGFAIRIUMAVXCW-UHFFFAOYSA-N,[O+]#[C-],C7H6O3,28.009998,0.0880,0,32.25,0,140.75725,1,carbon monoxide
"InChI=1S/C9H12O4/c10-7-3-1-2-6(9(7)13)4-5-8(11)12/h1-3,7,9-10,13H,4-5H2,(H,11,12)",RKDFGWAXBBGKMR-UHFFFAOYSA-N,OC1C(=CC=CC1O)CCC(O)=O,C7H8N4O2,184.19099,-0.3210,3,158.88,0,185.54102,0,"3-(5,6-dihydroxycyclohexa-1,3-dien-1-yl)propanoic acid"
"InChI=1S/CH2O2/c2-1-3/h1H,(H,2,3)/p-1",BDAGIHXWWSANSR-UHFFFAOYSA-M,O=C[O-],C8H10N4O2,45.016998,0.0190,0,37.88,0,154.81161,1,formate