InChI,Key,smiles,Formula,Weight,logP(o/w),b_rotN,vol,lip_violation,ASA_P,Natural,ChemicalName
"InChI=1S/C12H14N2O/c1-15-8-2-3-11-10(6-8)9-4-5-13-7-12(9)14-11/h2-3,6,13-14H,4-5,7H2,1H3",QYMDEOQLJUUNOF-UHFFFAOYSA-N,O(C)c1cc2c3CCNCc3[nH]c2cc1,C7H6O3,202.25699,1.7490,1,194.75,0,113.83674,0,"6-methoxy-2,3,4,9-tetrahydro-1<I>H</I>-pyrido[3,4-b]indole"
"InChI=1S/C11H15N5O4/c1-12-9-6-10(14-3-13-9)16(4-15-6)11-8(19)7(18)5(2-17)20-11/h3-5,7-8,11,17-19H,2H2,1H3,(H,12,13,14)",VQAYFKKCNSOZKM-UHFFFAOYSA-N,O1C(CO)C(O)C(O)C1n1c2ncnc(NC)c2nc1,C7H8N4O2,281.272,-1.9999,3,231.50,0,252.16405,1,"2-(hydroxymethyl)-5-[6-(methylamino)purin-9-yl]tetrahydrofuran-3,4-diol"
"InChI=1S/C11H17N5/c1-2-3-4-5-6-12-10-9-11(14-7-13-9)16-8-15-10/h7-8H,2-6H2,1H3,(H2,12,13,14,15,16)",SSVCRPKUKBLUMH-UHFFFAOYSA-N,[nH]1c2c(ncnc2NCCCCCC)nc1,C8H10N4O2,219.29199,1.6811,6,214.25,0,134.4655,1,<I>N</I>-hexyl-7<I>H</I>-purin-6-amine
InChI=1S/C9H5NO3/c11-9-4-1-6-5-7(10-12)2-3-8(6)13-9/h1-5H,HXTDAUGEZTYMGP-UHFFFAOYSA-N,O1c2c(cc(N=O)cc2)C=CC1=O,C8H14ClN5,175.14299,2.2310,1,157.25,0,77.359711,0,6-nitrosochromen-2-one
"InChI=1S/C22H27N3O/c1-4-10-25-14-16(22(26)24(5-2)6-3)11-18-17-8-7-9-19-21(17)15(13-23-19)12-20(18)25/h4,7-9,11,13,16,20,23H,1,5-6,10,12,14H2,2-3H3",JCQLEPDZFXGHHQ-UHFFFAOYSA-N,O=C(N(CC)CC)C1C=C2C(N(C1)CC=C)Cc1c3c2cccc3[nH]c1,C8H8O3,349.478,3.0060,6,343.00,0,143.26106,1,"7-allyl-<I>N</I>,<I>N</I>-diethyl-6,6<I>a</I>,8,9-tetrahydro-4<I>H</I>-indolo[4,3-fg]quinoline-9-carboxamide"
"InChI=1S/C14H25NO11/c1-5(18)15-9-13(24)12(23)8(3-17)26-14(9)25-4-7(20)11(22)10(21)6(19)2-16/h2,6-14,17,19-24H,3-4H2,1H3,(H,15,18)",JIORQTXCZAMBHG-UHFFFAOYSA-N,O1C(CO)C(O)C(O)C(NC(=O)C)C1OCC(O)C(O)C(O)C(O)C=O,C8H9NO2,383.35001,-4.9100,10,287.88,2,307.79123,0,"<I>N</I>-[4,5-dihydroxy-6-(hydroxymethyl)-2-(2,3,4,5-tetrahydroxy-6-oxo-hexoxy)tetrahydropyran-3-yl]acetamide"
"InChI=1S/C10H14N4O11P2/c15-6-4(1-23-26(17,18)19)24-10(7(6)16)14-3-13-5-8(14)11-2-12-9(5)25-27(20,21)22/h2-4,6-7,10,15-16H,1H2,(H2,17,18,19)(H2,20,21,22)",RXRZOKQPANIEDW-UHFFFAOYSA-N,P(Oc1ncnc2n(cnc12)C1OC(COP(O)(O)=O)C(O)C1O)(O)(O)=O,C9H10O3,428.18698,-4.0769,6,281.63,2,441.95432,1,"[9-[3,4-dihydroxy-5-(phosphonooxymethyl)tetrahydrofuran-2-yl]purin-6-yl] dihydrogen phosphate"
"InChI=1S/C26H34O8/c1-14-10-16-17-7-9-26(33,20(29)13-34-22(32)5-4-21(30)31)25(17,3)12-19(28)23(16)24(2)8-6-15(27)11-18(14)24/h6,8,11,14,16-17,19,23,28,33H,4-5,7,9-10,12-13H2,1-3H3,(H,30,31)",IMBXEJJVJRTNOW-UHFFFAOYSA-N,OC1(CCC2C3C(C4(C(=CC(=O)C=C4)C(C3)C)C)C(O)CC12C)C(=O)COC(=O)CCC(O)=O,C9H8O2,474.54999,2.2920,7,385.63,0,222.44702,1,"4-[2-(11,17-dihydroxy-6,10,13-trimethyl-3-oxo-7,8,9,11,12,14,15,16-octahydro-6<I>H</I>-cyclopenta[a]phenanthren-17-yl)-2-oxo-ethoxy]-4-oxo-butanoic acid"
"InChI=1S/C20H32O3/c1-7-18(4)11-13(21)16-19(5)10-8-9-17(2,3)15(19)14(22)12-20(16,6)23-18/h7,14-16,22H,1,8-12H2,2-6H3",QSBSWAUSLLQUDV-UHFFFAOYSA-N,O1C(CC(=O)C2C3(C(C(CCC3)(C)C)C(O)CC12C)C)(C=C)C,C10H11ClO3,320.47299,3.8250,1,267.00,0,75.619286,0,"6-hydroxy-3,4<I>a</I>,7,7,10<I>a</I>-pentamethyl-3-vinyl-2,5,6,6<I>a</I>,8,9,10,10<I>b</I>-octahydrobenzo[f]chromen-1-one"
"InChI=1S/C22H40O2/c1-4-5-6-7-8-9-10-11-12-13-16-19-22(2,3)20-17-14-15-18-21(23)24/h16-17,19-20H,4-15,18H2,1-3H3,(H,23,24)",AGKRHAILCPYNFH-UHFFFAOYSA-N,OC(=O)CCCC=CC(C=CCCCCCCCCCCC)(C)C,C10H11N3O3S,336.56,7.7440,16,348.50,1,99.513924,1,"(5<I>E</I>,8<I>E</I>)-7,7-dimethylicosa-5,8-dienoic acid"
"InChI=1S/C9H13N5O3/c1-3(15)6(16)4-2-11-7-5(12-4)8(17)14-9(10)13-7/h3-4,6,15-16H,2H2,1H3,(H3,10,11,13,14,17)",ZHQJVZLJDXWFFX-UHFFFAOYSA-N,O=C1N=C(N=C2NCC(N=C12)C(O)C(O)C)N,C12H7Cl3O2,239.235,-2.1900,2,192.88,0,278.45242,1,"2-amino-6-(1,2-dihydroxypropyl)-7,8-dihydro-6<I>H</I>-pteridin-4-one"
"InChI=1S/C15H10O4/c16-11-7-6-10-12(17)8-13(19-15(10)14(11)18)9-4-2-1-3-5-9/h1-8,16,18H",COCYGNDCWFKTMF-UHFFFAOYSA-N,O1c2c(ccc(O)c2O)C(=O)C=C1c1ccccc1,C13H10N2O3S,254.241,2.7660,1,234.50,0,121.67037,1,"7,8-dihydroxy-2-phenyl-chromen-4-one"
"InChI=1S/C15H19N5/c1-3-9(4-2)20-8-7-10-12(20)6-5-11-13(10)14(16)19-15(17)18-11/h5-9H,3-4H2,1-2H3,(H4,16,17,18,19)",GCPJCLJGTVTGRF-UHFFFAOYSA-N,n1c(N)c2c3c(n(cc3)C(CC)CC)ccc2nc1N,C13H18O2,269.35199,3.1780,3,257.25,0,186.85736,0,"7-(1-ethylpropyl)pyrrolo[3,2-f]quinazoline-1,3-diamine"
"InChI=1S/C9H11ClN4O2/c1-12-7-6(8(15)13(2)9(12)16)14(4-3-10)5-11-7/h5H,3-4H2,1-2H3",QCIARNIKNKKHFH-UHFFFAOYSA-N,ClCCn1c2c(nc1)N(C)C(=O)N(C)C2=O,C13H9Cl3N2O,242.666,-0.0500,2,207.63,0,222.40923,1,"7-(2-chloroethyl)-1,3-dimethyl-purine-2,6-dione"
"InChI=1S/C8H10N2O3S/c1-3-2-14-7-4(9)6(11)10(7)5(3)8(12)13/h4,7H,2,9H2,1H3,(H,12,13)",NVIAYEIXYQCDAN-UHFFFAOYSA-N,S1C2N(C(=O)C2N)C(C(O)=O)=C(C1)C,C14H12O3,214.245,-0.7580,1,168.50,0,231.30046,0,7-amino-3-methyl-8-oxo-5-thia-1-azabicyclo[4.2.0]oct-2-ene-2-carboxylic acid
"InChI=1S/C10H6ClNO3/c11-5-1-2-6-7(3-5)12-8(10(14)15)4-9(6)13/h1-4H,(H,12,13)(H,14,15)",UAWVRVFHMOSAPU-UHFFFAOYSA-N,Clc1cc2nc(cc(O)c2cc1)C(O)=O,C15H12N2O,223.61499,2.1020,1,185.38,0,164.56389,1,7-chloro-4-hydroxy-quinoline-2-carboxylic acid
"InChI=1S/C20H32O4/c1-7-18(4)11-12(21)14-19(5)10-8-9-17(2,3)15(19)13(22)16(23)20(14,6)24-18/h7,13-16,22-23H,1,8-11H2,2-6H3",PNQDGVYRLQBNOL-UHFFFAOYSA-N,O1C2(C(C3(C(C(O)C2O)C(CCC3)(C)C)C)C(=O)CC1(C=C)C)C,C7H8N4O2,336.47198,2.8100,1,270.38,0,111.05383,1,"5,6-dihydroxy-3,4<I>a</I>,7,7,10<I>a</I>-pentamethyl-3-vinyl-2,5,6,6<I>a</I>,8,9,10,10<I>b</I>-octahydrobenzo[f]chromen-1-one"
"InChI=1S/C20H32O5/c1-7-17(4)11-12(21)20(24)18(5)10-8-9-16(2,3)14(18)13(22)15(23)19(20,6)25-17/h7,13-15,22-24H,1,8-11H2,2-6H3",BEXJRVNGEWHUJR-UHFFFAOYSA-N,O1C2(C)C(O)(C3(C(C(O)C2O)C(CCC3)(C)C)C)C(=O)CC1(C=C)C,C8H10N4O2,352.47098,2.3580,1,270.38,0,140.02959,0,"5,6,10<I>b</I>-trihydroxy-3,4<I>a</I>,7,7,10<I>a</I>-pentamethyl-3-vinyl-5,6,6<I>a</I>,8,9,10-hexahydro-2<I>H</I>-benzo[f]chromen-1-one"
"InChI=1S/C15H12O4/c16-10-3-1-9(2-4-10)14-8-13(18)12-6-5-11(17)7-15(12)19-14/h1-7,14,16-17H,8H2",FURUXTVZLHCCNA-UHFFFAOYSA-N,O1c2c(ccc(O)c2)C(=O)CC1c1ccc(O)cc1,C8H14ClN5,256.25699,2.6530,1,233.88,0,138.89796,1,7-hydroxy-2-(4-hydroxyphenyl)chroman-4-one
"InChI=1S/C15H12O3/c16-11-6-7-12-13(17)9-14(18-15(12)8-11)10-4-2-1-3-5-10/h1-8,14,16H,9H2",SWAJPHCXKPCPQZ-UHFFFAOYSA-N,O1c2c(ccc(O)c2)C(=O)CC1c1ccccc1,C8H8O3,240.258,2.9610,1,227.88,0,93.0998,1,7-hydroxy-2-phenyl-chroman-4-one
"InChI=1S/C9H12N4O3/c1-11-7-6(8(15)12(2)9(11)16)13(3-4-14)5-10-7/h5,14H,3-4H2,1-2H3",NWPRCRWQMGIBOT-UHFFFAOYSA-N,O=C1N(C)C(=O)N(c2ncn(c12)CCO)C,C8H9NO2,224.22,-1.2980,2,198.88,0,183.00983,0,"7-(2-hydroxyethyl)-1,3-dimethyl-purine-2,6-dione"
"InChI=1S/C7H5N3O2/c11-10(12)6-3-1-2-5-4-8-9-7(5)6/h1-4H,(H,8,9)",PQCAUHUKTBHUSA-UHFFFAOYSA-N,O=[N+]([O-])c1c2n[nH]cc2ccc1,C9H10O3,163.136,1.7030,1,141.50,0,174.42468,1,7-nitro-2<I>H</I>-indazole
"InChI=1S/C8H7N5O2/c9-8(10)12-4-5-2-1-3-6(13(14)15)7(5)11-12/h1-4H,(H3,9,10)",GFYAZUABYOOPCN-UHFFFAOYSA-N,O=[N+]([O-])c1c2nn(cc2ccc1)C(N)=N,C9H8O2,205.177,0.9580,2,177.38,0,239.6543,0,7-nitroindazole-2-carboxamidine
"InChI=1S/C83H133N3O25/c1-44(2)37-59(84-65(92)35-36-82(15,16)75(99)55(13)76(100)83(17,18)81(107)108-19)72(97)51(9)41-49(7)69(94)46(4)31-33-60(88)53(11)77(101)86-67(56(14)87)74-54(12)63(110-66(93)43-62( 90)78(102)103)34-32-47(5)70(95)48(6)40-50(8)71(96)52(10",WFAGJVCGVSGPQH-UHFFFAOYSA-N,O1C(C(NC(=O)C(C(O)CCC(C(O)C(=CC(C(O)C(NC(=O)C=CC(C(=O)C(C(O)C(C(OC)=O)(C)C)C)(C)C)CC(C)C)C)C)C)C)C(O)C)C(C)C(OC(=O)CC(O)C(O)=O)CC=C(C)C(O)C(C=C(C)C(O)C(C)C(O)CC2OC(CC(C2)C)CC=CC=CCCC=CC=CC(=O)NC(C(O)C(O)=O)C1=O)C,C10H11ClO3,1572.973,7.2140,33,1354.25,4,493.72311,1,"4-[[(3<I>Z</I>,5<I>E</I>,9<I>E</I>,11<I>E</I>,22<I>E</I>,26<I>E</I>)-15-[carboxy(hydroxy)methyl]-24,28,30-trihydroxy-18-[2-hydroxy-1-[[(<I>E</I>)-3,7,11-trihydroxy-12-[[(<I>E</I>)-7-hydroxy-9-methoxy- 4,4,6,8,8-pentamethyl-5,9-dioxo-non-2-enoyl]amino]-2,6,8,10,14-pentamethyl-pentadec-8-enoyl]amino]propyl]-19,23,25,27,29,34-hexamethyl-13,16-dioxo-17,36-dioxa-14-azabicyclo[30.3.1]hexatriaconta-3,5,9, 11,22,26-hexaen-20-yl]oxy]-2-hydroxy-4-oxo-butanoic acid"
"InChI=1S/C11H19N5O11P2/c1-15-3-16(8-5(15)9(19)14-11(12)13-8)10-7(18)6(17)4(26-10)2-25-29(23,24)27-28(20,21)22/h4,6-7,10,17-18H,2-3H2,1H3,(H,23,24)(H2,20,21,22)(H3,12,13,14,19)",QQODJOAVWUWVHJ-UHFFFAOYSA-N,P(OCC1OC(N2C=3NC(=NC(=O)C=3N(C2)C)N)C(O)C1O)(OP(O)(O)=O)(O)=O,C10H11N3O3S,459.245,-3.7160,6,305.63,2,452.73462,1,"[5-(2-amino-7-methyl-6-oxo-3,8-dihydropurin-9-yl)-3,4-dihydroxy-tetrahydrofuran-2-yl]methyl phosphono hydrogen phosphate"
"InChI=1S/C20H32O4/c1-2-3-8-13-18(21)14-9-4-5-10-15-19(22)16-11-6-7-12-17-20(23)24/h4-6,9-11,14-15,18-19,21-22H,2-3,7-8,12-13,16-17H2,1H3,(H,23,24)",NNPWRKSGORGTIM-UHFFFAOYSA-N,OC(CCCCC)C=CC=CC=CC(O)CC=CCCCC(O)=O,C10H12O3,336.47198,4.2120,14,335.63,0,205.24324,0,"(5<I>E</I>,9<I>E</I>,11<I>E</I>,13<I>E</I>)-8,15-dihydroxyicosa-5,9,11,13-tetraenoic acid"
"InChI=1S/C20H32O3/c1-2-3-4-5-6-7-8-9-10-13-16-19(21)17-14-11-12-15-18-20(22)23/h6-7,9-11,13-14,16,19,21H,2-5,8,12,15,17-18H2,1H3,(H,22,23)",NLUNAYAEIJYXRB-UHFFFAOYSA-N,OC(CC=CCCCC(O)=O)C=CC=CCC=CCCCCC,C12H7Cl3O2,320.47299,4.5190,14,333.25,1,198.77444,1,"(5<I>E</I>,9<I>E</I>,11<I>E</I>,14<I>E</I>)-8-hydroxyicosa-5,9,11,14-tetraenoic acid"
"InChI=1S/C20H32O2/c1-2-3-4-5-6-7-8-9-10-11-12-13-14-15-16-17-18-19-20(21)22/h2-8,11,14-19H2,1H3,(H,21,22)",AJBBHZDIKZCZAI-UHFFFAOYSA-N,OC(=O)CCCCCCC#CCC#CCCCCCCCC,C13H10N2O3S,304.474,6.5720,16,328.63,1,181.1189,0,"icosa-8,11-diynoic acid"
"InChI=1S/C18H16O3/c19-16-9-12-8-14-11(7-15(12)17(20)18(16)21)6-5-10-3-1-2-4-13(10)14/h1-8,16-21H,9H2",PJLYABOZZKPPFO-UHFFFAOYSA-N,OC1C(O)Cc2c(cc3c(c4c(cc3)cccc4)c2)C1O,C13H18O2,280.323,2.7810,0,258.50,0,115.99397,1,"8,9,10,11-tetrahydrobenzo[b]phenanthrene-8,9,10-triol"
"InChI=1S/C20H32O3/c1-2-3-4-5-6-7-8-9-12-15-18-19(23-18)16-13-10-11-14-17-20(21)22/h6-7,9-10,12-13,18-19H,2-5,8,11,14-17H2,1H3,(H,21,22)",DBWQSCSXHFNTMO-UHFFFAOYSA-N,O1C(CC=CCCCC(O)=O)C1CC=CCC=CCCCCC,C13H9Cl3N2O,320.47299,4.3440,14,331.00,1,178.78323,1,"(<I>E</I>)-7-[3-[(2<I>E</I>,5<I>E</I>)-undeca-2,5-dienyl]oxiran-2-yl]hept-5-enoic acid"
"InChI=1S/C16H15ClN4O2/c1-19-12(8-7-10-5-4-6-11(17)9-10)18-14-13(19)15(22)21(3)16(23)20(14)2/h4-9H,1-3H3",WBWFIUAVMCNYPG-UHFFFAOYSA-N,Clc1cc(ccc1)C=Cc1nc2N(C)C(=O)N(C)C(=O)c2n1C,C14H12O3,330.77499,2.6630,2,303.88,0,151.38983,0,"8-[(<I>E</I>)-2-(3-chlorophenyl)vinyl]-1,3,7-trimethyl-purine-2,6-dione"
"InChI=1S/C16H15ClN5O6PS/c17-7-1-3-8(4-2-7)30-16-21-10-13(18)19-6-20-14(10)22(16)15-11(23)12-9(27-15)5-26-29(24,25)28-12/h1-4,6,9,11-12,15,23H,5H2,(H,24,25)(H2,18,19,20)/p-1",AAZMHPMNAVEBRE-UHFFFAOYSA-M,Clc1ccc(Sc2nc3c(ncnc3N)n2C2OC3C(OP(OC3)(=O)[O-])C2O)cc1,C15H12N2O,470.81,0.7341,3,350.00,1,286.38367,1,"6-[6-amino-8-(4-chlorophenyl)sulfanyl-purin-9-yl]-2-oxido-2-oxo-4<I>a</I>,6,7,7<I>a</I>-tetrahydro-4<I>H</I>-furo[3,2-d][1,3,2]dioxaphosphinin-7-ol"
"InChI=1S/C16H15ClN5O6PS/c17-7-1-3-8(4-2-7)30-16-21-10-13(18)19-6-20-14(10)22(16)15-11(23)12-9(27-15)5-26-29(24,25)28-12/h1-4,6,9,11-12,15,23H,5H2,(H,24,25)(H2,18,19,20)",AAZMHPMNAVEBRE-UHFFFAOYSA-N,Clc1ccc(Sc2nc3c(ncnc3N)n2C2OC3C(OP(OC3)(O)=O)C2O)cc1,C4H4KNO4S,471.81799,0.7841,3,350.00,1,323.78253,0,"6-[6-amino-8-(4-chlorophenyl)sulfanyl-purin-9-yl]-2-hydroxy-2-oxo-4<I>a</I>,6,7,7<I>a</I>-tetrahydro-4<I>H</I>-furo[3,2-d][1,3,2]dioxaphosphinin-7-ol"
"InChI=1S/C16H15ClN5O6PS.Na/c17-7-1-3-8(4-2-7)30-16-21-10-13(18)19-6-20-14(10)22(16)15-11(23)12-9(27-15)5-26-29(24,25)28-12;/h1-4,6,9,11-12,15,23H,5H2,(H,24,25)(H2,18,19,20);/q;+1/p-1",YIJFVHMIFGLKQL-UHFFFAOYSA-M,Clc1ccc(Sc2nc3c(ncnc3N)n2C2OC3C(OP(OC3)(=O)[O-])C2O)cc1.[Na+],C7H6O3,493.79999,0.7341,3,393.13,1,478.98575,1,"sodium;6-[6-amino-8-(4-chlorophenyl)sulfanyl-purin-9-yl]-2-oxido-2-oxo-4<I>a</I>,6,7,7<I>a</I>-tetrahydro-4<I>H</I>-furo[3,2-d][1,3,2]dioxaphosphinin-7-ol"
"InChI=1S/C16H26N7O6P/c17-5-3-1-2-4-6-19-16-22-10-13(18)20-8-21-14(10)23(16)15-11(24)12-9(28-15)7-27-30(25,26)29-12/h8-9,11-12,15,24H,1-7,17H2,(H,19,22)(H,25,26)(H2,18,20,21)",WCWLOZYNRVLFOG-UHFFFAOYSA-N,P1(OC2C(OC(n3c4ncnc(N)c4nc3NCCCCCCN)C2O)CO1)(O)=O,C7H8N4O2,443.401,-1.5549,8,347.25,2,382.83578,1,"6-[6-amino-8-(6-aminohexylamino)purin-9-yl]-2-hydroxy-2-oxo-4<I>a</I>,6,7,7<I>a</I>-tetrahydro-4<I>H</I>-furo[3,2-d][1,3,2]dioxaphosphinin-7-ol"
"InChI=1S/C16H28N7O7P/c17-5-3-1-2-4-6-19-16-22-10-13(18)20-8-21-14(10)23(16)15-12(25)11(24)9(30-15)7-29-31(26,27)28/h8-9,11-12,15,24-25H,1-7,17H2,(H,19,22)(H2,18,20,21)(H2,26,27,28)",GZBOSHMMYYUGMO-UHFFFAOYSA-N,P(OCC1OC(n2c3ncnc(N)c3nc2NCCCCCCN)C(O)C1O)(O)(O)=O,C8H10N4O2,461.41599,-2.3399,11,361.00,2,481.7182,0,"[5-[6-amino-8-(6-aminohexylamino)purin-9-yl]-3,4-dihydroxy-tetrahydrofuran-2-yl]methyl dihydrogen phosphate"
"InChI=1S/C13H12N4O5S/c1-16-11-9(12(18)17(2)13(16)19)14-10(15-11)7-3-5-8(6-4-7)23(20,21)22/h3-6H,1-2H3,(H,14,15)(H,20,21,22)",LXJSJIXZOAMHTG-UHFFFAOYSA-N,S(O)(=O)(=O)c1ccc(cc1)-c1[nH]c2N(C)C(=O)N(C)C(=O)c2n1,C8H14ClN5,336.328,-0.2680,2,271.63,0,264.13458,1,"4-(1,3-dimethyl-2,6-dioxo-9<I>H</I>-purin-8-yl)benzenesulfonic acid"
"InChI=1S/C10H11BrN5O6P/c11-10-15-4-7(12)13-2-14-8(4)16(10)9-5(17)6-3(21-9)1-20-23(18,19)22-6/h2-3,5-6,9,17H,1H2,(H,18,19)(H2,12,13,14)/p-1",DVKQVRZMKBDMDH-UHFFFAOYSA-M,Brc1nc2c(ncnc2N)n1C1OC2C(OP(OC2)(=O)[O-])C1O,C8H9NO2,407.09698,-1.3059,1,259.63,1,297.95572,1,"6-(6-amino-8-bromo-purin-9-yl)-2-oxido-2-oxo-4<I>a</I>,6,7,7<I>a</I>-tetrahydro-4<I>H</I>-furo[3,2-d][1,3,2]dioxaphosphinin-7-ol"
"InChI=1S/C10H11BrN5O6P/c11-10-15-4-7(12)13-2-14-8(4)16(10)9-5(17)6-3(21-9)1-20-23(18,19)22-6/h2-3,5-6,9,17H,1H2,(H,18,19)(H2,12,13,14)",DVKQVRZMKBDMDH-UHFFFAOYSA-N,Brc1nc2c(ncnc2N)n1C1OC2C(OP(OC2)(O)=O)C1O,C9H10O3,408.10498,-1.2559,1,259.63,1,302.66663,1,"6-(6-amino-8-bromo-purin-9-yl)-2-hydroxy-2-oxo-4<I>a</I>,6,7,7<I>a</I>-tetrahydro-4<I>H</I>-furo[3,2-d][1,3,2]dioxaphosphinin-7-ol"
"InChI=1S/C10H14BrN5O10P2/c11-15-8-5-9(13-2-12-8)16(3-14-5)10-7(18)6(17)4(25-10)1-24-28(22,23)26-27(19,20)21/h2-4,6-7,10,17-18H,1H2,(H,22,23)(H,12,13,15)(H2,19,20,21)",XTRSHQZBAMAXJJ-UHFFFAOYSA-N,BrNc1ncnc2n(cnc12)C1OC(COP(OP(O)(O)=O)(O)=O)C(O)C1O,C9H8O2,506.099,-2.7209,7,310.50,3,414.10272,0,"[5-[6-(bromoamino)purin-9-yl]-3,4-dihydroxy-tetrahydrofuran-2-yl]methyl phosphono hydrogen phosphate"
"InChI=1S/C10H11BrN5O7P/c11-9-13-3-6(14-10(12)15-7(3)18)16(9)8-4(17)5-2(22-8)1-21-24(19,20)23-5/h2,4-5,8,17H,1H2,(H,19,20)(H3,12,14,15,18)",YUFCOOWNNHGGOD-UHFFFAOYSA-N,Brc1nc2c(n1C1OC3C(OP(OC3)(O)=O)C1O)NC(=NC2=O)N,C10H11ClO3,424.104,-1.1570,1,263.50,1,370.63922,1,"2-amino-8-bromo-9-(2,7-dihydroxy-2-oxo-4<I>a</I>,6,7,7<I>a</I>-tetrahydro-4<I>H</I>-furo[3,2-d][1,3,2]dioxaphosphinin-6-yl)-3<I>H</I>-purin-6-one"
"InChI=1S/C10H13BrN5O8P/c11-9-13-3-6(14-10(12)15-7(3)19)16(9)8-5(18)4(17)2(24-8)1-23-25(20,21)22/h2,4-5,8,17-18H,1H2,(H2,20,21,22)(H3,12,14,15,19)",SJLDUTNIPDQOCZ-UHFFFAOYSA-N,Brc1nc2c(n1C1OC(COP(O)(O)=O)C(O)C1O)NC(=NC2=O)N,C10H11N3O3S,442.11899,-1.9420,4,274.75,2,411.19116,0,"[5-(2-amino-8-bromo-6-oxo-3<I>H</I>-purin-9-yl)-3,4-dihydroxy-tetrahydrofuran-2-yl]methyl dihydrogen phosphate"
"InChI=1S/C12H16N4O2/c1-15-10-8(11(17)16(2)12(15)18)13-9(14-10)7-5-3-4-6-7/h7H,3-6H2,1-2H3,(H,13,14)",SCVHFRLUNIOSGI-UHFFFAOYSA-N,O=C1N(C)C(=O)N(c2nc([nH]c12)C1CCCC1)C,C10H12O3,248.286,0.4080,1,224.50,0,161.42043,1,"8-cyclopentyl-1,3-dimethyl-7<I>H</I>-purine-2,6-dione"
"InChI=1S/C28H36N10O15P2/c1-11-4-12-14(5-13(11)36(2)3)37(25-19(33-12)26(44)35-28(45)34-25)6-15(39)20(41)16(40)7-50-54(46,47)53-55(48,49)51-8-17-21(42)22(43)27(52-17)38-10-32-18-23(29)30-9-31-24(18)38/h 4-5,9-10,15-17,20-22,27,39-43H,6-8H2,1-3H3,(H,46,47)(H,",UXOZEHHQWXVTPI-UHFFFAOYSA-N,P(OCC1OC(n2c3ncnc(N)c3nc2)C(O)C1O)(OP(OCC(O)C(O)C(O)CN1C2=NC(=O)NC(=O)C2=Nc2cc(C)c(N(C)C)cc12)(O)=O)(O)=O,C12H7Cl3O2,814.599,-4.8359,14,606.88,3,610.89551,1,"[[5-(6-aminopurin-9-yl)-3,4-dihydroxy-tetrahydrofuran-2-yl]methoxy-hydroxy-phosphoryl] [5-[8-(dimethylamino)-7-methyl-2,4-dioxo-benzo[g]pteridin-10-yl]-2,3,4-trihydroxy-pentyl] hydrogen phosphate"
"InChI=1S/C13H19N3O3/c1-4-5-6-16-12-10(11(17)8(2)13(16)18)14-9(15-12)7-19-3/h8H,4-7H2,1-3H3,(H,14,15)",ZMSRHBDUWNYZIE-UHFFFAOYSA-N,O=C1c2[nH]c(nc2N(CCCC)C(=O)C1C)COC,C13H10N2O3S,265.31299,0.5570,5,244.13,0,154.1785,0,"4-butyl-2-(methoxymethyl)-6-methyl-1<I>H</I>-imidazo[4,5-b]pyridine-5,7-dione"
"InChI=1S/C13H12N4O2/c1-16-11-9(12(18)17(2)13(16)19)14-10(15-11)8-6-4-3-5-7-8/h3-7H,1-2H3,(H,14,15)",PJFMAVHETLRJHJ-UHFFFAOYSA-N,O=C1N(C)C(=O)N(c2nc([nH]c12)-c1ccccc1)C,C13H18O2,256.26498,0.8350,1,242.50,0,162.11975,1,"1,3-dimethyl-8-phenyl-7<I>H</I>-purine-2,6-dione"
"InChI=1S/C9H7NO/c11-8-5-1-3-7-4-2-6-10-9(7)8/h1-6,11H",MCJGNVYPOGVAJF-UHFFFAOYSA-N,Oc1c2ncccc2ccc1,C13H9Cl3N2O,145.161,1.7980,0,142.63,0,59.444672,0,quinolin-8-ol
"InChI=1S/C11H14N5O6PS/c12-9-6-10(14-3-13-9)16(5(2-24)15-6)11-7(17)8-4(21-11)1-20-23(18,19)22-8/h3-4,7-8,11,17,24H,1-2H2,(H,18,19)(H2,12,13,14)",GPUNSPOSQRRPTH-UHFFFAOYSA-N,SCc1nc2c(ncnc2N)n1C1OC2C(OP(OC2)(O)=O)C1O,C14H12O3,375.302,-1.7639,2,267.75,1,384.95706,1,"6-[6-amino-8-(sulfanylmethyl)purin-9-yl]-2-hydroxy-2-oxo-4<I>a</I>,6,7,7<I>a</I>-tetrahydro-4<I>H</I>-furo[3,2-d][1,3,2]dioxaphosphinin-7-ol"
"InChI=1S/C16H19N5O2/c1-16(8-7-10-5-3-2-4-6-10)11(9-22)18-12-13(21-16)19-15(17)20-14(12)23/h2-6,22H,7-9H2,1H3,(H4,17,19,20,21,23)",XMFJTCGUDFSWSW-UHFFFAOYSA-N,O=C1N=C(NC=2NC(CCc3ccccc3)(C)C(=NC1=2)CO)N,C15H12N2O,313.36099,1.5110,4,276.88,0,249.37193,1,"2-amino-6-(hydroxymethyl)-7-methyl-7-(2-phenylethyl)-1,8-dihydropteridin-4-one"
"InChI=1S/C20H32O3/c1-2-3-4-5-6-7-8-10-13-16-19(21)17-14-11-9-12-15-18-20(22)23/h6-7,9-11,13-14,17,19,21H,2-5,8,12,15-16,18H2,1H3,(H,22,23)",KATOYYZUTNAWSA-UHFFFAOYSA-N,OC(CC=CCC=CCCCCC)C=CC=CCCCC(O)=O,C4H4KNO4S,320.47299,4.5190,14,332.88,1,173.87427,0,"(5<I>E</I>,7<I>E</I>,11<I>E</I>,14<I>E</I>)-9-hydroxyicosa-5,7,11,14-tetraenoic acid"
"InChI=1S/C18H32O3/c1-2-3-4-5-6-8-11-14-17(19)15-12-9-7-10-13-16-18(20)21/h6,8,11,14,17,19H,2-5,7,9-10,12-13,15-16H2,1H3,(H,20,21)",NPDSHTNEKLQQIJ-UHFFFAOYSA-N,OC(CCCCCCCC(O)=O)C=CC=CCCCCC,C7H6O3,296.45099,5.1770,14,301.13,0,162.16582,1,"(10<I>E</I>,12<I>E</I>)-9-hydroxyoctadeca-10,12-dienoic acid"
"InChI=1S/C18H32O4/c1-2-3-4-5-6-8-11-14-17(22-21)15-12-9-7-10-13-16-18(19)20/h6,8,11,14,17,21H,2-5,7,9-10,12-13,15-16H2,1H3,(H,19,20)",JGUNZIWGNMQSBM-UHFFFAOYSA-N,O(O)C(CCCCCCCC(O)=O)C=CC=CCCCCC,C7H8N4O2,312.44998,5.3140,15,312.50,0,159.9127,0,"(10<I>E</I>,12<I>E</I>)-9-hydroperoxyoctadeca-10,12-dienoic acid"
"InChI=1S/C18H32O3/c1-2-3-4-5-7-10-13-16-17(21-16)14-11-8-6-9-12-15-18(19)20/h7,10,16-17H,2-6,8-9,11-15H2,1H3,(H,19,20)",FBUKMFOXMZRGRB-UHFFFAOYSA-N,O1C(CCCCCCCC(O)=O)C1CC=CCCCCC,C8H10N4O2,296.45099,5.0020,14,302.13,1,144.64883,1,8-[3-[(<I>E</I>)-oct-2-enyl]oxiran-2-yl]octanoic acid
"InChI=1S/C18H35NO/c1-2-3-4-5-6-7-8-9-10-11-12-13-14-15-16-17-18(19)20/h9-10H,2-8,11-17H2,1H3,(H2,19,20)",FATBGEAMYMYZAF-UHFFFAOYSA-N,O=C(N)CCCCCCCC=CCCCCCCCC,C8H14ClN5,281.48401,5.3440,15,300.13,1,122.80449,1,(<I>E</I>)-octadec-9-enamide
"InChI=1S/C18H28O2/c1-2-3-4-5-6-7-8-9-10-11-12-13-14-15-16-17-18(19)20/h2-5,8,11-17H2,1H3,(H,19,20)",KDYILQLPKVZDGB-UHFFFAOYSA-N,OC(=O)CCCCCCCC#CCC#CCCCCC,C8H8O3,276.41998,5.6880,14,295.25,0,173.46863,0,"octadeca-9,12-diynoic acid"
"InChI=1S/C10H13N5O/c11-9-8-10(13-5-12-9)15(6-14-8)7-3-1-2-4-16-7/h5-7H,1-4H2,(H2,11,12,13)",ATNWAGKQIUHFQP-UHFFFAOYSA-N,O1CCCCC1n1c2ncnc(N)c2nc1,C8H9NO2,219.248,0.7261,1,197.50,0,177.90805,1,9-tetrahydropyran-2-ylpurin-6-amine
"InChI=1S/C20H20N2/c1-2-8-15(9-3-1)14-21-20-16-10-4-6-12-18(16)22-19-13-7-5-11-17(19)20/h1-4,6,8-10,12H,5,7,11,13-14H2,(H,21,22)",JYJAEHAURXXPSD-UHFFFAOYSA-N,n1c2c(CCCC2)c(NCc2ccccc2)c2c1cccc2,C9H10O3,288.39398,4.5500,3,292.63,0,36.990067,0,"<I>N</I>-benzyl-1,2,3,4-tetrahydroacridin-9-amine"
"InChI=1S/C19H24O3/c1-13(6-5-7-14(2)10-19(21)22)8-9-18-15(3)11-17(20)12-16(18)4/h5-9,11-12,14,20H,10H2,1-4H3,(H,21,22)",NGRFDFMAPACMPF-UHFFFAOYSA-N,Oc1cc(C)c(C=CC(=CC=CC(CC(O)=O)C)C)c(c1)C,C9H8O2,300.39798,4.4630,6,303.75,0,132.38049,1,"(4<I>E</I>,6<I>E</I>,8<I>E</I>)-9-(4-hydroxy-2,6-dimethyl-phenyl)-3,7-dimethyl-nona-4,6,8-trienoic acid"
"InChI=1S/C13H14N2/c14-13-9-5-1-3-7-11(9)15-12-8-4-2-6-10(12)13/h1,3,5,7H,2,4,6,8H2,(H2,14,15)",YLJREFDVOIBQDA-UHFFFAOYSA-N,n1c2c(CCCC2)c(N)c2c1cccc2,C10H11ClO3,198.269,2.4430,0,196.63,0,65.135017,1,"1,2,3,4-tetrahydroacridin-9-amine"