InChI,Key,smiles,Formula,Weight,logP(o/w),b_rotN,vol,lip_violation,ASA_P,Natural,ChemicalName
"InChI=1S/C26H53NO2/c1-3-5-7-9-11-12-13-14-15-16-17-18-20-22-26(29)25(24-28)27-23-21-19-10-8-6-4-2/h20,22,25-29H,3-19,21,23-24H2,1-2H3",CSRGRGSMEUKQSD-UHFFFAOYSA-N,OC(C(NCCCCCCCC)CO)C=CCCCCCCCCCCCCC,C14H12O3,411.715,8.0250,23,428.75,1,105.83215,1,"(<I>E</I>)-2-(octylamino)octadec-4-ene-1,3-diol"
"InChI=1S/C26H53NO3/c1-3-5-7-9-10-11-12-13-14-15-16-18-19-21-25(29)24(23-28)27-26(30)22-20-17-8-6-4-2/h24-25,28-29H,3-23H2,1-2H3,(H,27,30)",LGOFBZUQIUVJFS-UHFFFAOYSA-N,OC(C(NC(=O)CCCCCCC)CO)CCCCCCCCCCCCCCC,C15H12N2O,427.71399,7.7830,24,435.25,1,113.12843,0,<I>N</I>-[2-hydroxy-1-(hydroxymethyl)heptadecyl]octanamide
"InChI=1S/C38H72N2O8/c1-7-45-37(43)27-23-19-15-11-9-13-17-21-25-29-39(5)35(41)31-47-33(3)34(4)48-32-36(42)40(6)30-26-22-18-14-10-12-16-20-24-28-38(44)46-8-2/h33-34H,7-32H2,1-6H3",CJAONIOAQZUHPN-UHFFFAOYSA-N,O(C(C(OCC(=O)N(CCCCCCCCCCCC(OCC)=O)C)C)C)CC(=O)N(CCCCCCCCCCCC(OCC)=O)C,C4H4KNO4S,685,7.8017,37,680.50,2,213.0929,1,ethyl 12-[[2-[2-[2-[(12-ethoxy-12-oxo-dodecyl)-methyl-amino]-2-oxo-ethoxy]-1-methyl-propoxy]acetyl]-methyl-amino]dodecanoate
"InChI=1S/C26H37N5O2/c1-5-11-30-17-19(25(32)31(26(33)27-6-2)13-8-12-29(3)4)14-21-20-9-7-10-22-24(20)18(16-28-22)15-23(21)30/h5,7,9-10,16,19,21,23,28H,1,6,8,11-15,17H2,2-4H3,(H,27,33)",KORNTPPJEAJQIU-UHFFFAOYSA-N,O=C(N(CCCN(C)C)C(=O)NCC)C1CC2C(N(C1)CC=C)Cc1c3c2cccc3[nH]c1,C7H6O3,451.61499,2.4300,11,432.88,0,202.84175,1,"7-allyl-<I>N</I>-[3-(dimethylamino)propyl]-<I>N</I>-(ethylcarbamoyl)-6,6<I>a</I>,8,9,10,10<I>a</I>-hexahydro-4<I>H</I>-indolo[4,3-fg]quinoline-9-carboxamide"
"InChI=1S/C2H7AsO2/c1-3(2,4)5/h1-2H3,(H,4,5)",OGGXGZAMXPVRFZ-UHFFFAOYSA-N,[As](O)(=O)(C)C,C7H8N4O2,137.998,-0.2820,0,64.88,0,96.237762,0,dimethylarsinic acid
"InChI=1S/2C2H4O2.Cd/c2*1-2(3)4;/h2*1H3,(H,3,4);",SGJUCMOYVKXLDY-UHFFFAOYSA-N,[Cd].OC(=O)C.OC(=O)C,C8H10N4O2,232.51601,-0.0960,0,117.63,0,215.56746,1,acetic acid;cadmium
"InChI=1S/C12H21N5O3/c1-4-17(8-9(3)18)11-7-6-10(13-15-11)14-16-12(19)20-5-2/h6-7,9,18H,4-5,8H2,1-3H3,(H,13,14)(H,16,19)",QLTVVOATEHFXLT-UHFFFAOYSA-N,O(CC)C(=O)NNc1nnc(N(CC(O)C)CC)cc1,C8H14ClN5,283.332,1.5610,9,257.00,0,188.06288,0,ethyl <I>N</I>-[[6-[ethyl(2-hydroxypropyl)amino]pyridazin-3-yl]amino]carbamate
"InChI=1S/C9H8O4/c10-7-3-1-6(5-8(7)11)2-4-9(12)13/h1-5,10-11H,(H,12,13)",QAIPRVGONGVQAS-UHFFFAOYSA-N,Oc1cc(ccc1O)\C=C\C(O)=O,C9H10O3,180.159,1.6460,2,159.63,0,190.39618,0,"(<I>E</I>)-3-(3,4-dihydroxyphenyl)prop-2-enoic acid"
"InChI=1S/C8H10N4O2/c1-10-4-9-6-5(10)7(13)12(3)8(14)11(6)2/h4H,1-3H3",RYYVLZVUVIJVGH-UHFFFAOYSA-N,O=C1N(C)C(=O)N(c2ncn(c12)C)C,C9H8O2,194.194,-0.6040,0,179.00,0,168.75639,1,"1,3,7-trimethylpurine-2,6-dione"
"InChI=1S/C27H38N2O4/c1-20(2)27(19-28,22-10-12-24(31-5)26(18-22)33-7)14-8-15-29(3)16-13-21-9-11-23(30-4)25(17-21)32-6/h9-12,17-18,20H,8,13-16H2,1-7H3",SGTNSNPWRIOYBX-UHFFFAOYSA-N,O(C)c1cc(ccc1OC)C(C(C)C)(CCCN(CCc1cc(OC)c(OC)cc1)C)C#N,C10H11ClO3,454.61099,5.3515,14,440.75,1,207.6624,0,"2-(3,4-dimethoxyphenyl)-5-[2-(3,4-dimethoxyphenyl)ethyl-methyl-amino]-2-isopropyl-pentanenitrile"
"InChI=1S/C30H26N2O13/c33-21-7-23-19(5-15(21)9-31(11-25(35)36)12-26(37)38)29(17-3-1-2-4-18(17)30(43)44)20-6-16(22(34)8-24(20)45-23)10-32(13-27(39)40)14-28(41)42/h1-8,33H,9-14H2,(H,35,36)(H,37,38)(H,39, 40)(H,41,42)(H,43,44)",XIAYFENBYCWHGY-UHFFFAOYSA-N,O1C2=CC(=O)C(=CC2=C(c2cc(CN(CC(O)=O)CC(O)=O)c(O)cc12)c1ccccc1C(O)=O)CN(CC(O)=O)CC(O)=O,C10H11N3O3S,622.539,1.9890,14,499.75,3,451.67773,1,"2-[2,7-bis[[bis(carboxymethyl)amino]methyl]-3-hydroxy-6-oxo-xanthen-9-yl]benzoic acid"
"InChI=1S/C27H40O3/c1-17(6-13-25(29)20-8-9-20)23-11-12-24-19(5-4-14-27(23,24)3)7-10-21-15-22(28)16-26(30)18(21)2/h6-7,10,13,17,20,22-26,28-30H,2,4-5,8-9,11-12,14-16H2,1,3H3",LWQQLNNNIPYSNX-UHFFFAOYSA-N,OC1CC(O)CC(=CC=C2C3CCC(C(C=CC(O)C4CC4)C)C3(CCC2)C)C1=C,C10H12O3,412.61398,4.4440,5,389.75,1,187.06065,1,"(5<I>E</I>)-5-[(2<I>E</I>)-2-[1-[(<I>E</I>)-4-cyclopropyl-4-hydroxy-1-methyl-but-2-enyl]-7<I>a</I>-methyl-2,3,3<I>a</I>,5,6,7-hexahydro-1<I>H</I>-inden-4-ylidene]ethylidene]-4-methylene-cyclohexane-1, 3-diol"
"InChI=1S/C28H42O3/c1-18(7-14-26(30)21-9-10-21)24-12-13-25-20(6-5-15-27(24,25)3)8-11-22-16-23(29)17-28(4,31)19(22)2/h7-8,11,14,18,21,23-26,29-31H,2,5-6,9-10,12-13,15-17H2,1,3-4H3",CWFZYRNMMPHAIS-UHFFFAOYSA-N,OC1(CC(O)CC(=CC=C2C3CCC(C(C=CC(O)C4CC4)C)C3(CCC2)C)C1=C)C,C12H7Cl3O2,426.64099,4.8510,5,401.38,1,176.96411,0,"(5<I>E</I>)-5-[(2<I>E</I>)-2-[1-[(<I>E</I>)-4-cyclopropyl-4-hydroxy-1-methyl-but-2-enyl]-7<I>a</I>-methyl-2,3,3<I>a</I>,5,6,7-hexahydro-1<I>H</I>-inden-4-ylidene]ethylidene]-1-methyl-6-methylene-cyclo hexane-1,3-diol"
"InChI=1S/C27H44O3/c1-18(8-6-14-26(3,4)30)23-12-13-24-20(9-7-15-27(23,24)5)10-11-21-16-22(28)17-25(29)19(21)2/h10-11,18,22-25,28-30H,2,6-9,12-17H2,1,3-5H3",GMRQFYUYWCNGIN-UHFFFAOYSA-N,OC1CC(O)CC(=CC=C2C3CCC(C(CCCC(O)(C)C)C)C3(CCC2)C)C1=C,C13H10N2O3S,416.646,5.3970,6,388.50,1,129.73915,1,"(5<I>E</I>)-5-[(2<I>E</I>)-2-[1-(5-hydroxy-1,5-dimethyl-hexyl)-7<I>a</I>-methyl-2,3,3<I>a</I>,5,6,7-hexahydro-1<I>H</I>-inden-4-ylidene]ethylidene]-4-methylene-cyclohexane-1,3-diol"
"InChI=1S/C18H34I2O2/c1-2-3-4-8-11-16(19)14-15-17(20)12-9-6-5-7-10-13-18(21)22/h16-17H,2-15H2,1H3,(H,21,22)",ITMYMILZKSEQKJ-UHFFFAOYSA-N,IC(CCC(I)CCCCCC)CCCCCCCC(O)=O,C13H18O2,536.276,8.6880,16,347.13,2,86.423386,0,"9,12-diiodooctadecanoic acid"
"InChI=1S/C3H9O6P/c4-1-3(2-5)9-10(6,7)8/h3-5H,1-2H2,(H2,6,7,8)",DHCLVCXQIBBOPH-UHFFFAOYSA-N,P(OC(CO)CO)(O)(O)=O,C13H9Cl3N2O,172.073,-2.5580,4,107.63,0,213.86607,1,[2-hydroxy-1-(hydroxymethyl)ethyl] dihydrogen phosphate
"InChI=1S/C10H19NO5/c1-10(2,6-12)8(15)9(16)11-5-3-4-7(13)14/h8,12,15H,3-6H2,1-2H3,(H,11,16)(H,13,14)",SBBDHANTMHIRGW-UHFFFAOYSA-N,OC(C(CO)(C)C)C(=O)NCCCC(O)=O,C14H12O3,233.26399,-0.6160,8,191.00,0,221.7798,1,"4-[(2,4-dihydroxy-3,3-dimethyl-butanoyl)amino]butanoic acid"
"InChI=1S/C12H11I3N2O4/c1-4(18)16-10-7(13)6(12(20)21)8(14)11(9(10)15)17(3)5(2)19/h1-3H3,(H,16,18)(H,20,21)",GGGDNPWHMNJRFN-UHFFFAOYSA-N,Ic1c(C(O)=O)c(I)c(NC(=O)C)c(I)c1N(C(=O)C)C,C15H12N2O,627.94202,3.9200,5,272.63,1,174.11697,0,"3-acetamido-5-[acetyl(methyl)amino]-2,4,6-triiodo-benzoic acid"
"InChI=1S/2C9H17NO5.Ca/c2*1-9(2,5-11)7(14)8(15)10-4-3-6(12)13;/h2*7,11,14H,3-5H2,1-2H3,(H,10,15)(H,12,13);/q;;+2/p-2",FAPWYRCQGJNNSJ-UHFFFAOYSA-L,[Ca+2].OC(C(CO)(C)C)C(=O)NCCC(=O)[O-].OC(C(CO)(C)C)C(=O)NCCC(=O)[O-],C4H4KNO4S,476.53598,-1.8120,14,369.75,2,543.18005,1,"calcium;3-[(2,4-dihydroxy-3,3-dimethyl-butanoyl)amino]propanoate"
"InChI=1S/C31H23Cl6N2O/c32-23-6-1-20(2-7-23)31(21-3-8-24(33)9-4-21)39-14-13-38(19-39)17-30(27-12-11-26(35)16-29(27)37)40-18-22-5-10-25(34)15-28(22)36/h1-16,19,30-31H,17-18H2/q+1",CTKNMSVWMRRCPW-UHFFFAOYSA-N,Clc1cc(Cl)ccc1C(OCc1ccc(Cl)cc1Cl)C[n+]1ccn(c1)C(c1ccc(Cl)cc1)c1ccc(Cl)cc1,C7H6O3,652.25598,11.9060,9,541.88,2,31.71995,0,"1-[bis(4-chlorophenyl)methyl]-3-[2-(2,4-dichlorophenyl)-2-[(2,4-dichlorophenyl)methoxy]ethyl]imidazol-3-ium"
"InChI=1S/C20H30N2O4/c1-4-5-11-17(13-23)21-19(24)18(12-15(2)3)22-20(25)26-14-16-9-7-6-8-10-16/h6-10,13,15,17-18H,4-5,11-12,14H2,1-3H3,(H,21,24)(H,22,25)",PGGUOGKHUUUWAF-UHFFFAOYSA-N,O(Cc1ccccc1)C(=O)NC(CC(C)C)C(=O)NC(CCCC)C=O,C7H8N4O2,362.47,4.3350,14,344.63,0,137.10768,1,benzyl <I>N</I>-[1-(1-formylpentylcarbamoyl)-3-methyl-butyl]carbamate
"InChI=1S/C44H38O14/c1-20(56-43(50)22-10-8-7-9-11-22)16-25-31-32-26(17-21(2)57-44(51)58-24-14-12-23(45)13-15-24)42(55-6)40(49)34-28(47)19-30(53-4)36(38(32)34)35-29(52-3)18-27(46)33(37(31)35)39(48)41(25 )54-5/h7-15,18-21,45,48-49H,16-17H2,1-6H3",LSUTUUOITDQYNO-UHFFFAOYSA-N,O(C)c1c(c2c3c4c(c(O)c(OC)c3CC(OC(Oc3ccc(O)cc3)=O)C)C(=O)C=C(OC)c4c3c2c(c1O)C(=O)C=C3OC)CC(OC(=O)c1ccccc1)C,C8H10N4O2,790.77399,8.5980,15,664.75,3,344.3721,1,"[2-[3,10-dihydroxy-12-[2-(4-hydroxyphenoxy)carbonyloxypropyl]-2,6,7,11-tetramethoxy-4,9-dioxo-perylen-1-yl]-1-methyl-ethyl] benzoate"
"InChI=1S/C50H81N4O15P/c1-29(20-22-51)16-14-17-30(2)32(4)24-33(5)42(57)35(7)38(55)25-41(65-13)45-46(69-70(61,62)63)49(8,9)50(68-45)26-39(56)34(6)40(67-50)19-15-18-36-27-66-48(53-36)31(3)21-23-52-47(60) 44(59)43(58)37(28-64-12)54(10)11/h14-18,20,24,27,31,33-",FKAWLXNLHHIHLA-UHFFFAOYSA-N,P(OC1C(C)(C)C2(OC(CC=Cc3nc(oc3)C(CCNC(=O)C(O)C(O)C(N(C)C)COC)C)C(C)C(O)C2)OC1C(OC)CC(O)C(C(O)C(C=C(C(=CC=CC(=CC#N)C)C)C)C)C)(O)(O)=O,C8H14ClN5,1009.185,2.9440,28,878.00,3,481.56992,0,"[2-[(7<I>E</I>,9<I>E</I>,11<I>E</I>,13<I>E</I>)-14-cyano-3,5-dihydroxy-1-methoxy-4,6,8,9,13-pentamethyl-tetradeca-7,9,11,13-tetraenyl]-9-[(<I>E</I>)-3-[2-[3-[[4-(dimethylamino)-2,3-dihydroxy-5-methoxy -pentanoyl]amino]-1-methyl-propyl]oxazol-4-yl]allyl]-7-hydroxy-4,4,8-trimethyl-1,10-dioxaspiro[4.5]decan-3-yl] dihydrogen phosphate"
"InChI=1S/C16H14O5/c1-21-11-4-5-12(15(19)9-11)13(17)6-2-10-3-7-14(18)16(20)8-10/h2-9,18-20H,1H3",IULVGTQOZKYHCS-UHFFFAOYSA-N,O(C)c1cc(O)c(cc1)C(=O)C=Cc1cc(O)c(O)cc1,C8H8O3,286.28299,3.1670,4,263.25,0,175.47299,1,"(<I>E</I>)-3-(3,4-dihydroxyphenyl)-1-(2-hydroxy-4-methoxy-phenyl)prop-2-en-1-one"
"InChI=1S/C20H22N4O5/c1-24(2)17(25)12-28-18(26)11-13-3-9-16(10-4-13)29-19(27)14-5-7-15(8-6-14)23-20(21)22/h3-10H,11-12H2,1-2H3,(H4,21,22,23)",XASIMHXSUQUHLV-UHFFFAOYSA-N,O(C(=O)c1ccc(NC(N)=N)cc1)c1ccc(cc1)CC(OCC(=O)N(C)C)=O,C8H9NO2,398.41901,2.2910,11,366.75,0,293.46085,0,[4-[2-[2-(dimethylamino)-2-oxo-ethoxy]-2-oxo-ethyl]phenyl] 4-guanidinobenzoate
"InChI=1S/C10H16O/c1-9(2)7-4-5-10(9,3)8(11)6-7/h7H,4-6H2,1-3H3",DSSYKIVIOFKYAU-UHFFFAOYSA-N,O=C1CC2CCC1(C)C2(C)C,C9H10O3,152.237,1.9000,0,134.13,0,34.322517,1,"1,7,7-trimethylnorbornan-2-one"
"InChI=1S/C33H34N6O6/c1-3-42-32-34-28-15-9-14-27(31(40)43-21(2)44-33(41)45-24-10-5-4-6-11-24)29(28)39(32)20-22-16-18-23(19-17-22)25-12-7-8-13-26(25)30-35-37-38-36-30/h7-9,12-19,21,24H,3-6,10-11,20H2,1- 2H3,(H,35,36,37,38)",GHOSNRCGJFBJIB-UHFFFAOYSA-N,O(C(OC(OC(=O)c1c2n(Cc3ccc(cc3)-c3ccccc3-c3[nH]nnn3)c(OCC)nc2ccc1)C)=O)C1CCCCC1,C10H11N3O3S,610.67096,7.9270,13,552.63,3,148.03508,1,1-(cyclohexoxycarbonyloxy)ethyl 2-ethoxy-3-[[4-[2-(1<I>H</I>-tetrazol-5-yl)phenyl]phenyl]methyl]benzimidazole-4-carboxylate
"InChI=1S/C24H20N6O3/c1-2-33-24-25-20-9-5-8-19(23(31)32)21(20)30(24)14-15-10-12-16(13-11-15)17-6-3-4-7-18(17)22-26-28-29-27-22/h3-13H,2,14H2,1H3,(H,31,32)(H,26,27,28,29)",HTQMVQVXFRQIKW-UHFFFAOYSA-N,O(CC)c1nc2c(n1Cc1ccc(cc1)-c1ccccc1-c1[nH]nnn1)c(ccc2)C(O)=O,C10H12O3,440.46298,4.9640,7,398.88,0,189.3799,0,2-ethoxy-3-[[4-[2-(1<I>H</I>-tetrazol-5-yl)phenyl]phenyl]methyl]benzimidazole-4-carboxylic acid
"InChI=1S/C21H30O2/c1-5-6-7-8-16-12-19(22)21(20(23)13-16)18-11-15(4)9-10-17(18)14(2)3/h9,12-13,17-18,22-23H,2,5-8,10-11H2,1,3-4H3",ZTGXAWYVTLUPDT-UHFFFAOYSA-N,Oc1cc(cc(O)c1C1CC(=CCC1C(C)=C)C)CCCCC,C12H7Cl3O2,314.46899,4.7390,6,313.75,1,73.055794,1,"2-(6-isopropenyl-3-methyl-cyclohex-3-en-1-yl)-5-pentyl-benzene-1,3-diol"
"InChI=1S/C21H26O2/c1-5-6-7-8-15-12-18(22)20-16-11-14(2)9-10-17(16)21(3,4)23-19(20)13-15/h9-13,22H,5-8H2,1-4H3",VBGLYOIFKLUMQG-UHFFFAOYSA-N,O1c2c(-c3c(ccc(c3)C)C1(C)C)c(O)cc(c2)CCCCC,C13H10N2O3S,310.43698,6.7050,4,306.50,1,38.470421,1,"6,6,9-trimethyl-3-pentyl-benzo[c]chromen-1-ol"
"InChI=1S/C10H14O5/c1-9(7(11)12)5-3-4-6(15-5)10(9,2)8(13)14/h5-6H,3-4H2,1-2H3,(H,11,12)(H,13,14)",NMTNUQBORQILRK-UHFFFAOYSA-N,O1C2CCC1C(C(O)=O)(C)C2(C(O)=O)C,C13H18O2,214.217,0.2420,2,143.38,0,153.68681,0,"2,3-dimethyl-7-oxabicyclo[2.2.1]heptane-2,3-dicarboxylic acid"
"InChI=1S/C9H14N2O4S/c1-6(5-16-10-15)8(12)11-4-2-3-7(11)9(13)14/h6-7H,2-5H2,1H3,(H,13,14)",HNIULCDUASSKOM-UHFFFAOYSA-N,S(N=O)CC(C(=O)N1CCCC1C(O)=O)C,C14H12O3,246.287,1.1630,6,197.75,0,112.42027,0,1-(2-methyl-3-nitrososulfanyl-propanoyl)pyrrolidine-2-carboxylic acid
"InChI=1S/C25H44N14O8/c26-4-1-2-11(27)6-17(41)32-8-14-20(43)35-15(9-34-25(30)47)21(44)39-18(13-3-5-31-24(29)38-13)23(46)33-7-12(28)19(42)37-16(10-40)22(45)36-14/h9,11-14,16,18,40H,1-8,10,26-28H2,(H,32, 41)(H,33,46)(H,35,43)(H,36,45)(H,37,42)(H,39,44)(H3,29,",JNIIDKODPGHQSS-UHFFFAOYSA-N,O=C1NCC(N)C(=O)NC(CO)C(=O)NC(CNC(=O)CC(N)CCCN)C(=O)NC(=CNC(=O)N)C(=O)NC1C1NC(=NCC1)N,C15H12N2O,668.71698,-8.7770,12,528.88,3,590.57477,1,"3,6-diamino-<I>N</I>-[[(8<I>Z</I>)-15-amino-11-(2-amino-1,4,5,6-tetrahydropyrimidin-6-yl)-2-(hydroxymethyl)-3,6,9,12,16-pentaoxo-8-(ureidomethylene)-1,4,7,10,13-pentazacyclohexadec-5-yl]methyl]hexanam ide"
"InChI=1S/C18H27NO3/c1-14(2)8-6-4-5-7-9-18(21)19-13-15-10-11-16(20)17(12-15)22-3/h6,8,10-12,14,20H,4-5,7,9,13H2,1-3H3,(H,19,21)",YKPUWZUDDOIDPM-UHFFFAOYSA-N,O(C)c1cc(ccc1O)CNC(=O)CCCCC=CC(C)C,C4H4KNO4S,305.418,3.5630,10,307.13,0,142.26117,1,(<I>E</I>)-<I>N</I>-[(4-hydroxy-3-methoxy-phenyl)methyl]-8-methyl-non-6-enamide
"InChI=1S/C9H15NO3S/c1-6(5-14)8(11)10-4-2-3-7(10)9(12)13/h6-7,14H,2-5H2,1H3,(H,12,13)",FAKRSMQSSFJEIM-UHFFFAOYSA-N,SCC(C(=O)N1CCCC1C(O)=O)C,C7H6O3,217.289,0.6810,4,180.63,0,167.68452,0,1-(2-methyl-3-sulfanyl-propanoyl)pyrrolidine-2-carboxylic acid
"InChI=1S/C6H14N2O2/c1-8(2,3)4-5-10-6(7)9/h4-5H2,1-3H3,(H-,7,9)/p+1",VPJXQGSRWJZDOB-UHFFFAOYSA-O,O(CC[N+](C)(C)C)C(=O)N,C7H8N4O2,147.198,-0.9710,4,133.63,0,177.01663,1,2-carbamoyloxyethyl(trimethyl)ammonium
"InChI=1S/C21H34O4/c1-2-3-4-8-17(22)10-11-18-19-13-15(7-5-6-9-21(24)25)12-16(19)14-20(18)23/h7,10-11,16-20,22-23H,2-6,8-9,12-14H2,1H3,(H,24,25)",XZFRIPGNUQRGPI-UHFFFAOYSA-N,OC1CC2C(CC(C2)=CCCCC(O)=O)C1C=CC(O)CCCCC,C8H10N4O2,350.49899,3.1870,10,336.13,0,179.14273,0,"(5<I>E</I>)-5-[5-hydroxy-4-[(<I>E</I>)-3-hydroxyoct-1-enyl]-3,3<I>a</I>,4,5,6,6<I>a</I>-hexahydro-1<I>H</I>-pentalen-2-ylidene]pentanoic acid"
"InChI=1S/C11H10N4O4/c1-19-11(16)13-12-6-8-7-14(17)9-4-2-3-5-10(9)15(8)18/h2-7,18H,1H3/b8-6?,13-12+",BPMVRAQIQQEBLN-COMUDTEHSA-N,O(C(=O)\N=N\C=C1N(O)c2c([N+]([O-])=C1)cccc2)C,C8H14ClN5,262.22501,1.6930,3,232.00,0,166.63232,1,methyl (<I>N</I><I>E</I>)-<I>N</I>-[(<I>E</I>)-(1-hydroxy-4-oxido-quinoxalin-4-ium-2-ylidene)methyl]iminocarbamate
"InChI=1S/C15H12N2O/c16-15(18)17-13-7-3-1-5-11(13)9-10-12-6-2-4-8-14(12)17/h1-10H,(H2,16,18)",FFGPTBGBLSHEPO-UHFFFAOYSA-N,O=C(N)N1c2c(C=Cc3c1cccc3)cccc2,C8H8O3,236.274,2.9680,1,229.13,0,89.003952,1,benzo[b][1]benzazepine-11-carboxamide
"InChI=1S/C8H15O8P/c9-5-2-8(13,7(11)12)1-4(6(5)10)3-17(14,15)16/h4-6,9-10,13H,1-3H2,(H,11,12)(H2,14,15,16)",BKLICLLAHMTUPK-UHFFFAOYSA-N,P(O)(O)(=O)CC1CC(O)(CC(O)C1O)C(O)=O,C9H10O3,270.17398,-2.7620,3,172.25,1,320.43213,1,"1,3,4-trihydroxy-5-(phosphonomethyl)cyclohexanecarboxylic acid"
"InChI=1S/C10H11N3O5S/c1-13-7-4-8(14)6(12-10(11)15)2-5(7)3-9(13)19(16,17)18/h2,4,9H,3H2,1H3,(H2,11,15)(H,16,17,18)",KMMQBKISGLXKDB-UHFFFAOYSA-N,S(O)(=O)(=O)C1N(C2=CC(=O)C(=NC(=O)N)C=C2C1)C,C9H8O2,285.28,-1.3890,2,216.00,0,287.65588,0,"(5<I>E</I>)-5-carbamoylimino-1-methyl-6-oxo-2,3-dihydroindole-2-sulfonic acid"
"InChI=1S/C17H18N2O6S/c1-17(2)11(16(24)25)19-13(21)10(14(19)26-17)18-12(20)9(15(22)23)8-6-4-3-5-7-8/h3-7,9-11,14H,1-2H3,(H,18,20)(H,22,23)(H,24,25)/p-2",FPPNZSSZRUTDAP-UHFFFAOYSA-L,S1C2N(C(C(=O)[O-])C1(C)C)C(=O)C2NC(=O)C(C(=O)[O-])c1ccccc1,C10H11ClO3,376.38901,1.2290,6,305.13,0,252.79739,1,"6-[(2-carboxylato-2-phenyl-acetyl)amino]-3,3-dimethyl-7-oxo-4-thia-1-azabicyclo[3.2.0]heptane-2-carboxylate"
"InChI=1S/C17H18N2O6S/c1-17(2)11(16(24)25)19-13(21)10(14(19)26-17)18-12(20)9(15(22)23)8-6-4-3-5-7-8/h3-7,9-11,14H,1-2H3,(H,18,20)(H,22,23)(H,24,25)",FPPNZSSZRUTDAP-UHFFFAOYSA-N,S1C2N(C(C(O)=O)C1(C)C)C(=O)C2NC(=O)C(C(O)=O)c1ccccc1,C10H11N3O3S,378.405,0.9870,6,305.13,0,265.93839,1,"6-[(2-carboxy-2-phenyl-acetyl)amino]-3,3-dimethyl-7-oxo-4-thia-1-azabicyclo[3.2.0]heptane-2-carboxylic acid"
"InChI=1S/C34H50O7/c1-29(2)23-10-13-34(7)27(32(23,5)12-11-24(29)41-26(38)9-8-25(36)37)22(35)18-20-21-19-31(4,28(39)40)15-14-30(21,3)16-17-33(20,34)6/h18,21,23-24,27H,8-17,19H2,1-7H3,(H,36,37)(H,39,40)",OBZHEBDUNPOCJG-UHFFFAOYSA-N,O(C(=O)CCC(O)=O)C1CCC2(C3C(CCC2C1(C)C)(C)C1(C(C2CC(CCC2(CC1)C)(C(O)=O)C)=CC3=O)C)C,C10H11ClO3,570.76697,5.7370,6,450.13,2,218.16342,0,"10-(3-carboxypropanoyloxy)-2,4<I>a</I>,6<I>a</I>,6<I>b</I>,9,9,12<I>a</I>-heptamethyl-13-oxo-3,4,5,6,6<I>a</I>,7,8,8<I>a</I>,10,11,12,14<I>b</I>-dodecahydro-1<I>H</I>-picene-2-carboxylic acid"
"InChI=1S/C20H31NO3/c1-3-21(4-2)14-15-23-16-17-24-19(22)20(12-8-9-13-20)18-10-6-5-7-11-18/h5-7,10-11H,3-4,8-9,12-17H2,1-2H3",CFJMRBQWBDQYMK-UHFFFAOYSA-N,O(C(=O)C1(CCCC1)c1ccccc1)CCOCCN(CC)CC,C10H11N3O3S,333.47198,3.9297,11,320.88,0,68.148506,1,2-[2-(diethylamino)ethoxy]ethyl 1-phenylcyclopentanecarboxylate
"InChI=1S/C10H14N2O4/c1-10(12-11,9(15)16)5-6-2-3-7(13)8(14)4-6/h2-4,12-14H,5,11H2,1H3,(H,15,16)",TZFNLOMSOLWIDK-UHFFFAOYSA-N,Oc1cc(ccc1O)CC(NN)(C(O)=O)C,C10H12O3,226.23199,0.3470,4,178.75,1,234.71935,0,"3-(3,4-dihydroxyphenyl)-2-hydrazino-2-methyl-propanoic acid"
"InChI=1S/C16H19ClN2O/c1-19(2)11-12-20-16(15-5-3-4-10-18-15)13-6-8-14(17)9-7-13/h3-10,16H,11-12H2,1-2H3",OJFSXZCBGQGRNV-UHFFFAOYSA-N,Clc1ccc(cc1)C(OCCN(C)C)c1ncccc1,C12H7Cl3O2,290.79401,3.1030,6,279.25,0,62.776657,1,"2-[(4-chlorophenyl)-(2-pyridyl)methoxy]-<I>N</I>,<I>N</I>-dimethyl-ethanamine"
"InChI=1S/C26H43N3O5/c1-17(2)12-21(15-30)27-24(31)22(13-18(3)4)28-25(32)23(14-19(5)6)29-26(33)34-16-20-10-8-7-9-11-20/h7-11,17-19,21-23,30H,12-16H2,1-6H3,(H,27,31)(H,28,32)(H,29,33)",WUJQMWDTZKIKQZ-UHFFFAOYSA-N,O(Cc1ccccc1)C(=O)NC(CC(C)C)C(=O)NC(CC(C)C)C(=O)NC(CC(C)C)CO,C13H10N2O3S,477.646,4.8050,18,438.88,0,155.80028,1,benzyl <I>N</I>-[1-[[1-[[1-(hydroxymethyl)-3-methyl-butyl]carbamoyl]-3-methyl-butyl]carbamoyl]-3-methyl-butyl]carbamate
"InChI=1S/C12H15NO3/c1-12(2)7-8-5-4-6-9(10(8)16-12)15-11(14)13-3/h4-6H,7H2,1-3H3,(H,13,14)",DUEPRVBVGDRKAG-UHFFFAOYSA-N,O1c2c(CC1(C)C)cccc2OC(=O)NC,C13H18O2,221.256,2.2120,3,204.63,0,93.432159,0,"(2,2-dimethyl-3<I>H</I>-benzofuran-7-yl) <I>N</I>-methylcarbamate"
"InChI=1S/C6H8O4.Pt/c7-4(8)6(5(9)10)2-1-3-6;/h1-3H2,(H,7,8)(H,9,10);",IUJRHPSJWLCXAY-UHFFFAOYSA-N,[Pt].OC(=O)C1(CCC1)C(O)=O,C13H9Cl3N2O,339.20898,0.7120,2,130.13,0,168.61505,1,"cyclobutane-1,1-dicarboxylic acid;platinum"
"InChI=1S/C6H8O4/c7-4(8)6(5(9)10)2-1-3-6/h1-3H2,(H,7,8)(H,9,10)",CCQPAEQGAVNNIA-UHFFFAOYSA-N,OC(=O)C1(CCC1)C(O)=O,C14H12O3,144.12599,0.7120,2,110.13,0,168.67616,0,"cyclobutane-1,1-dicarboxylic acid"
"InChI=1S/C15H19N3O5/c1-8-11(17-3-4-17)14(20)10(9(22-2)7-23-15(16)21)12(13(8)19)18-5-6-18/h9H,3-7H2,1-2H3,(H2,16,21)",SHHKQEUPHAENFK-UHFFFAOYSA-N,O=C1C(C(OC)COC(=O)N)=C(N2CC2)C(=O)C(C)=C1N1CC1,C15H12N2O,321.33301,-1.3143,7,287.25,0,172.30315,1,"[2-[2,5-bis(aziridin-1-yl)-4-methyl-3,6-dioxo-cyclohexa-1,4-dien-1-yl]-2-methoxy-ethyl] carbamate"
"InChI=1S/C14H18N2O4/c1-13(2)14(3,4)16(20)11(15(13)19)9-5-7-10(8-6-9)12(17)18/h5-8,19H,1-4H3,(H,17,18)",QSSNLQPWTLQYTB-UHFFFAOYSA-N,OC(=O)c1ccc(cc1)C1=[N+]([O-])C(C)(C)C(N1O)(C)C,C4H4KNO4S,278.30798,2.1930,2,234.75,0,145.44263,1,"4-(1-hydroxy-4,4,5,5-tetramethyl-3-oxido-imidazol-3-ium-2-yl)benzoic acid"
"InChI=1S/C14H18N2O4/c1-13(2)14(3,4)16(20)11(15(13)19)9-5-7-10(8-6-9)12(17)18/h5-8,19H,1-4H3,(H,17,18)/p-1",QSSNLQPWTLQYTB-UHFFFAOYSA-M,O=C([O-])c1ccc(cc1)C1=[N+]([O-])C(C)(C)C(N1O)(C)C,C7H6O3,277.29999,2.3140,2,234.75,0,140.28905,0,"4-(1-hydroxy-4,4,5,5-tetramethyl-3-oxido-imidazol-3-ium-2-yl)benzoate"
"InChI=1S/C7H13NO4/c9-6(10)2-1-4-8-5-3-7(11)12/h8H,1-5H2,(H,9,10)(H,11,12)",SRGQUICKDUQCKO-UHFFFAOYSA-N,OC(=O)CCCNCCC(O)=O,C7H8N4O2,175.18399,-0.4730,7,151.00,0,222.74675,1,4-(2-carboxyethylamino)butanoic acid
"InChI=1S/C23H38N7O18P3/c1-23(2,18(35)21(36)26-7-5-13(31)25-6-3-4-14(32)33)9-45-51(42,43)48-50(40,41)44-8-12-17(47-49(37,38)39)16(34)22(46-12)30-11-29-15-19(24)27-10-28-20(15)30/h10-12,16-18,22,34-35H, 3-9H2,1-2H3,(H,25,31)(H,26,36)(H,32,33)(H,40,41)(H,42,4",SKRDARVCOPFVCP-UHFFFAOYSA-N,P(OCC1OC(n2c3ncnc(N)c3nc2)C(O)C1OP(O)(O)=O)(OP(OCC(C(O)C(=O)NCCC(=O)NCCCC(O)=O)(C)C)(O)=O)(O)=O,C8H10N4O2,793.51001,-5.5289,22,553.50,3,552.39185,0,"4-[3-[[4-[[[5-(6-aminopurin-9-yl)-4-hydroxy-3-phosphonooxy-tetrahydrofuran-2-yl]methoxy-hydroxy-phosphoryl]oxy-hydroxy-phosphoryl]oxy-2-hydroxy-3,3-dimethyl-butanoyl]amino]propanoylamino]butanoic acid"
"InChI=1S/C8H14N4O/c9-3-1-8(13)11-4-2-7-5-10-6-12-7/h5-6H,1-4,9H2,(H,10,12)(H,11,13)",ANRUJJLGVODXIK-UHFFFAOYSA-N,O=C(NCCc1[nH]cnc1)CCN,C8H14ClN5,182.22699,-2.0040,6,169.38,0,149.29124,1,3-amino-<I>N</I>-[2-(1<I>H</I>-imidazol-5-yl)ethyl]propanamide