InChI,Key,smiles,Formula,Weight,logP(o/w),b_rotN,vol,lip_violation,ASA_P,Natural,ChemicalName
"InChI=1S/C15H13NO3S2/c1-10(7-11-5-3-2-4-6-11)8-12-14(19)16(9-13(17)18)15(20)21-12/h2-8H,9H2,1H3,(H,17,18)",CHNUOJQWGUIOLD-UHFFFAOYSA-N,S1C(=CC(=Cc2ccccc2)C)C(=O)N(CC(O)=O)C1=S,C13H18O2,319.405,2.7590,4,273.63,0,228.55971,1,2-[(5<I>Z</I>)-5-[(<I>E</I>)-2-methyl-3-phenyl-prop-2-enylidene]-4-oxo-2-thioxo-thiazolidin-3-yl]acetic acid
"InChI=1S/C17H25NO/c1-3-15-7-9-16(10-8-15)17(19)14(2)13-18-11-5-4-6-12-18/h7-10,14H,3-6,11-13H2,1-2H3",SQUNAWUMZGQQJD-UHFFFAOYSA-N,O=C(C(CN1CCCCC1)C)c1ccc(cc1)CC,C13H9Cl3N2O,259.39301,3.7150,5,262.75,0,39.277508,1,1-(4-ethylphenyl)-2-methyl-3-(1-piperidyl)propan-1-one
"InChI=1S/C21H38N4O8/c1-9(2)7-12(22)17(28)20(31)25-16(11(5)6)19(30)24-15(10(3)4)18(29)23-13(21(32)33)8-14(26)27/h9-13,15-17,28H,7-8,22H2,1-6H3,(H,23,29)(H,24,30)(H,25,31)(H,26,27)(H,32,33)",QFAADIRHLBXJJS-UHFFFAOYSA-N,OC(C(N)CC(C)C)C(=O)NC(C(C)C)C(=O)NC(C(C)C)C(=O)NC(CC(O)=O)C(O)=O,C14H12O3,474.55499,0.1450,17,398.38,2,280.7634,0,2-[[2-[[2-[(3-amino-2-hydroxy-5-methyl-hexanoyl)amino]-3-methyl-butanoyl]amino]-3-methyl-butanoyl]amino]butanedioic acid
"InChI=1S/C16H24N2O4/c1-10(2)8-13(16(21)22)18-15(20)14(19)12(17)9-11-6-4-3-5-7-11/h3-7,10,12-14,19H,8-9,17H2,1-2H3,(H,18,20)(H,21,22)",VGGGPCQERPFHOB-UHFFFAOYSA-N,OC(C(N)Cc1ccccc1)C(=O)NC(CC(C)C)C(O)=O,C15H12N2O,308.37799,1.3060,9,277.38,0,183.23112,1,2-[(3-amino-2-hydroxy-4-phenyl-butanoyl)amino]-4-methyl-pentanoic acid
"InChI=1S/C27H48O/c1-18(2)7-6-8-19(3)23-11-12-24-22-10-9-20-17-21(28)13-15-26(20,4)25(22)14-16-27(23,24)5/h18-25,28H,6-17H2,1-5H3",QYIXCDOBOSTCEI-UHFFFAOYSA-N,OC1CC2CCC3C4CCC(C(CCCC(C)C)C)C4(CCC3C2(CC1)C)C,C7H6O3,388.67999,8.5330,5,359.00,1,47.660175,1,"17-(1,5-dimethylhexyl)-10,13-dimethyl-2,3,4,5,6,7,8,9,11,12,14,15,16,17-tetradecahydro-1<I>H</I>-cyclopenta[a]phenanthren-3-ol"
"InChI=1S/C11H14N4O2/c1-7-5-9(16-3)13-11(12-7)15-10(17-4)6-8(2)14-15/h5-6H,1-4H3",RHAXSHUQNIEUEY-UHFFFAOYSA-N,O(C)c1n(nc(c1)C)-c1nc(cc(OC)n1)C,C8H10N4O2,234.259,1.2331,3,225.13,0,108.74764,0,4-methoxy-2-(5-methoxy-3-methyl-pyrazol-1-yl)-6-methyl-pyrimidine
"InChI=1S/C32H57N5O9/c1-12-18(5)25(34-30(44)27(19(6)13-2)37(11)22(9)41)28(42)35-26(20(7)40)29(43)33-24(14-17(3)4)32(45)31(10,16-39)36-23(15-38)21(8)46-32/h15,17-19,21,23-27,36,39,45H,12-14,16H2,1-11H3, (H,33,43)(H,34,44)(H,35,42)",NDFLCTSMIHPKET-UHFFFAOYSA-N,O1C(O)(C(NC(=O)C(NC(=O)C(NC(=O)C(N(C(=O)C)C)C(CC)C)C(CC)C)C(=O)C)CC(C)C)C(NC(C=O)C1C)(CO)C,C8H8O3,655.83398,2.0050,21,548.38,3,239.35007,0,"2-[[2-[acetyl(methyl)amino]-3-methyl-pentanoyl]amino]-<I>N</I>-[1-[[1-[5-formyl-2-hydroxy-3-(hydroxymethyl)-3,6-dimethyl-morpholin-2-yl]-3-methyl-butyl]carbamoyl]-2-oxo-propyl]-3-methyl-pentanamide"
"InChI=1S/C24H32N2O2/c1-3-28-23(21-10-6-4-7-11-21)19-26-16-14-25(15-17-26)18-20(2)24(27)22-12-8-5-9-13-22/h4-13,20,23H,3,14-19H2,1-2H3",BSHWLCACYCVCJE-UHFFFAOYSA-N,O(C(CN1CCN(CC1)CC(C(=O)c1ccccc1)C)c1ccccc1)CC,C8H9NO2,380.53198,3.6610,9,379.50,0,61.997959,1,3-[4-(2-ethoxy-2-phenyl-ethyl)piperazin-1-yl]-2-methyl-1-phenyl-propan-1-one
"InChI=1S/C18H20O2/c1-18-9-8-14-13-5-3-12(19)10-11(13)2-4-15(14)16(18)6-7-17(18)20/h3-5,10,14,16,19H,2,6-9H2,1H3",WKRLQDKEXYKHJB-UHFFFAOYSA-N,Oc1cc2CC=C3C4CCC(=O)C4(CCC3c2cc1)C,C9H8O2,268.35599,2.7310,0,247.25,0,95.605019,0,"3-hydroxy-13-methyl-9,11,12,14,15,16-hexahydro-6<I>H</I>-cyclopenta[a]phenanthren-17-one"
"InChI=1S/C10H10O4/c1-14-10(13)5-2-7-6-8(11)3-4-9(7)12/h2-6,11-12H,1H3",BQCNSTFWSKOWMA-UHFFFAOYSA-N,Oc1ccc(O)cc1C=CC(OC)=O,C10H11ClO3,194.18599,1.9100,3,179.13,0,149.83778,1,"methyl (<I>E</I>)-3-(2,5-dihydroxyphenyl)prop-2-enoate"
"InChI=1S/C28H44O/c1-19(2)20(3)9-10-22(5)26-15-16-27-23(8-7-17-28(26,27)6)12-13-24-18-25(29)14-11-21(24)4/h9-10,12-13,19-20,22,25-27,29H,4,7-8,11,14-18H2,1-3,5-6H3",MECHNRXZTMCUDQ-UHFFFAOYSA-N,OC1CC(=CC=C2C3CCC(C(C=CC(C(C)C)C)C)C3(CCC2)C)C(CC1)=C,C10H11N3O3S,396.659,6.6300,5,397.13,1,67.526955,0,"(3<I>E</I>)-3-[(2<I>E</I>)-2-[7<I>a</I>-methyl-1-[(<I>E</I>)-1,4,5-trimethylhex-2-enyl]-2,3,3<I>a</I>,5,6,7-hexahydro-1<I>H</I>-inden-4-ylidene]ethylidene]-4-methylene-cyclohexanol"
"InChI=1S/C19H23N3O2/c1-11(10-23)21-19(24)13-6-15-14-4-3-5-16-18(14)12(8-20-16)7-17(15)22(2)9-13/h3-6,8,11,13,17,20,23H,7,9-10H2,1-2H3,(H,21,24)",WVVSZNPYNCNODU-UHFFFAOYSA-N,OCC(NC(=O)C1C=C2C(N(C1)C)Cc1c3c2cccc3[nH]c1)C,C10H12O3,325.41199,1.2330,4,302.88,0,148.87022,1,"<I>N</I>-(2-hydroxy-1-methyl-ethyl)-7-methyl-6,6<I>a</I>,8,9-tetrahydro-4<I>H</I>-indolo[4,3-fg]quinoline-9-carboxamide"
"InChI=1S/C37H56O13/c1-20-24(17-46-18-30-33(43)29(41)12-23(15-38)49-30)28(40)13-32(48-20)50-22-3-8-35(19-39)26-4-7-34(2)25(21-11-31(42)47-16-21)6-10-37(34,45)27(26)5-9-36(35,44)14-22/h11,19-20,22-30,32 -33,38,40-41,43-45H,3-10,12-18H2,1-2H3",OFURJKQYILYJGS-UHFFFAOYSA-N,O1C(COCC2C(OC(OC3CC4(O)CCC5C(CCC6(C)C(CCC56O)C5=CC(OC5)=O)C4(CC3)C=O)CC2O)C)C(O)C(O)CC1CO,C13H10N2O3S,708.84198,1.3220,9,557.75,3,334.66214,0,"3-[5-[[3,4-dihydroxy-6-(hydroxymethyl)tetrahydropyran-2-yl]methoxymethyl]-4-hydroxy-6-methyl-tetrahydropyran-2-yl]oxy-5,14-dihydroxy-13-methyl-17-(5-oxo-2<I>H</I>-furan-3-yl)-2,3,4,6,7,8,9,11,12,15,16 ,17-dodecahydro-1<I>H</I>-cyclopenta[a]phenanthrene-10-carbaldehyde"
"InChI=1S/C37H67NO13/c1-14-25-37(10,45)30(41)20(4)27(39)18(2)16-35(8,44)32(51-34-28(40)24(38(11)12)15-19(3)47-34)21(5)29(22(6)33(43)49-25)50-26-17-36(9,46-13)31(42)23(7)48-26/h18-26,28-32,34,40-42,44-4 5H,14-17H2,1-13H3",ULGZDMOVFRHVEP-UHFFFAOYSA-N,O1C(CC)C(O)(C)C(O)C(C)C(=O)C(CC(O)(C)C(OC2OC(CC(N(C)C)C2O)C)C(C)C(OC2OC(C)C(O)C(OC)(C2)C)C(C)C1=O)C,C13H18O2,733.93701,2.7610,7,555.38,2,197.30429,1,"6-[4-(dimethylamino)-3-hydroxy-6-methyl-tetrahydropyran-2-yl]oxy-14-ethyl-7,12,13-trihydroxy-4-(5-hydroxy-4-methoxy-4,6-dimethyl-tetrahydropyran-2-yl)oxy-3,5,7,9,11,13-hexamethyl-oxacyclotetradecane-2 ,10-dione"
"InChI=1S/C43H75NO16/c1-15-29-43(11,52)36(48)24(5)33(47)22(3)20-41(9,51)38(25(6)34(26(7)39(50)57-29)59-32-21-42(10,53-14)37(49)27(8)56-32)60-40-35(28(44(12)13)19-23(4)55-40)58-31(46)18-17-30(45)54-16-2 /h22-29,32,34-38,40,48-49,51-52H,15-21H2,1-14H3",NSYZCCDSJNWWJL-UHFFFAOYSA-N,O1C(CC)C(O)(C)C(O)C(C)C(=O)C(CC(O)(C)C(OC2OC(CC(N(C)C)C2OC(=O)CCC(OCC)=O)C)C(C)C(OC2OC(C)C(O)C(OC)(C2)C)C(C)C1=O)C,C13H9Cl3N2O,862.06396,3.2617,14,680.50,2,213.52254,0,"<I>O</I>4-[4-(dimethylamino)-2-[[14-ethyl-7,12,13-trihydroxy-4-(5-hydroxy-4-methoxy-4,6-dimethyl-tetrahydropyran-2-yl)oxy-3,5,7,9,11,13-hexamethyl-2,10-dioxo-oxacyclotetradec-6-yl]oxy]-6-methyl-tetrah ydropyran-3-yl] <I>O</I>1-ethyl butanedioate"
"InChI=1S/C36H65NO12/c1-13-26-34(7,42)16-19(2)29(38)20(3)17-35(8,43)27(49-33-30(39)24(37(10)11)14-21(4)45-33)15-25(22(5)32(41)48-26)47-28-18-36(9,44-12)31(40)23(6)46-28/h19-28,30-31,33,39-40,42-43H,13- 18H2,1-12H3",FSLFSOVSICIWSD-UHFFFAOYSA-N,O1C(CC)C(O)(CC(C)C(=O)C(CC(O)(C)C(OC2OC(CC(N(C)C)C2O)C)CC(OC2OC(C)C(O)C(OC)(C2)C)C(C)C1=O)C)C,C14H12O3,703.91101,3.4180,7,564.13,2,163.53613,1,"6-[4-(dimethylamino)-3-hydroxy-6-methyl-tetrahydropyran-2-yl]oxy-14-ethyl-7,13-dihydroxy-4-(5-hydroxy-4-methoxy-4,6-dimethyl-tetrahydropyran-2-yl)oxy-3,7,9,11,13-pentamethyl-oxacyclotetradecane-2,10-d ione"
"InChI=1S/C40H71NO14/c1-15-27-40(11,48)33(44)22(5)30(43)20(3)18-38(9,47)35(55-37-32(53-28(42)16-2)26(41(12)13)17-21(4)50-37)23(6)31(24(7)36(46)52-27)54-29-19-39(10,49-14)34(45)25(8)51-29/h20-27,29,31-3 5,37,44-45,47-48H,15-19H2,1-14H3",TYQXKHPOXXXCTP-UHFFFAOYSA-N,O1C(CC)C(O)(C)C(O)C(C)C(=O)C(CC(O)(C)C(OC2OC(CC(N(C)C)C2OC(=O)CC)C)C(C)C(OC2OC(C)C(O)C(OC)(C2)C)C(C)C1=O)C,C15H12N2O,790.00098,3.5767,10,596.88,2,227.97131,1,"[4-(dimethylamino)-2-[[14-ethyl-7,12,13-trihydroxy-4-(5-hydroxy-4-methoxy-4,6-dimethyl-tetrahydropyran-2-yl)oxy-3,5,7,9,11,13-hexamethyl-2,10-dioxo-oxacyclotetradec-6-yl]oxy]-6-methyl-tetrahydropyran- 3-yl] propanoate"
"InChI=1S/C20H8I4O5/c21-11-5-9-17(13(23)15(11)25)28-18-10(6-12(22)16(26)14(18)24)20(9)8-4-2-1-3-7(8)19(27)29-20/h1-6,25-26H",OALHHIHQOFIMEF-UHFFFAOYSA-N,Ic1c2Oc3c(cc(I)c(O)c3I)C3(OC(=O)c4c3cccc4)c2cc(I)c1O,C4H4KNO4S,835.89496,8.8740,0,387.00,2,109.18365,0,"3',6'-dihydroxy-2',4',5',7'-tetraiodo-spiro[isobenzofuran-3,9'-xanthene]-1-one"
"InChI=1S/C12H13N5O4/c18-3-6-8(19)9(20)12(21-6)17-5-14-7-10-13-1-2-16(10)4-15-11(7)17/h1-2,4-6,8-9,12,18-20H,3H2",LRPBXXZUPUBCAP-UHFFFAOYSA-N,O1C(CO)C(O)C(O)C1n1c2N=Cn3c(ncc3)-c2nc1,C7H6O3,291.267,-1.3569,2,242.25,0,253.10966,1,"2-(hydroxymethyl)-5-imidazo[2,1-f]purin-3-yl-tetrahydrofuran-3,4-diol"
"InChI=1S/C16H11ClN4/c17-12-6-7-14-13(8-12)16(11-4-2-1-3-5-11)18-9-15-20-19-10-21(14)15/h1-8,10H,9H2",CDCHDCWJMGXXRH-UHFFFAOYSA-N,Clc1cc2c(-n3c(nnc3)CN=C2c2ccccc2)cc1,C7H8N4O2,294.745,3.6680,1,268.63,0,73.166985,0,"8-chloro-6-phenyl-4<I>H</I>-[1,2,4]triazolo[4,3-a][1,4]benzodiazepine"
"InChI=1S/C25H28O3/c1-25-14-13-20-19-10-8-18(28-24(27)16-5-3-2-4-6-16)15-17(19)7-9-21(20)22(25)11-12-23(25)26/h2-6,8,10,15,20-23,26H,7,9,11-14H2,1H3",UYIFTLBWAOGQBI-UHFFFAOYSA-N,O(C(=O)c1ccccc1)c1cc2CCC3C4CCC(O)C4(CCC3c2cc1)C,C8H10N4O2,376.496,5.7540,3,351.13,1,68.300308,1,"(17-hydroxy-13-methyl-6,7,8,9,11,12,14,15,16,17-decahydrocyclopenta[a]phenanthren-3-yl) benzoate"
"InChI=1S/C26H36O3/c1-26-15-14-21-20-10-8-19(27)16-18(20)7-9-22(21)23(26)11-12-24(26)29-25(28)13-6-17-4-2-3-5-17/h8,10,16-17,21-24,27H,2-7,9,11-15H2,1H3",UOACKFBJUYNSLK-UHFFFAOYSA-N,O(C(=O)CCC1CCCC1)C1CCC2C3C(CCC12C)c1c(cc(O)cc1)CC3,C8H14ClN5,396.57098,6.5470,5,370.13,1,93.967049,1,"(3-hydroxy-13-methyl-6,7,8,9,11,12,14,15,16,17-decahydrocyclopenta[a]phenanthren-17-yl) 3-cyclopentylpropanoate"
"InChI=1S/C22H28O4/c1-13(23)25-16-5-7-17-15(12-16)4-6-19-18(17)10-11-22(3)20(19)8-9-21(22)26-14(2)24/h5,7,12,18-21H,4,6,8-11H2,1-3H3",VQHQLBARMFAKSV-UHFFFAOYSA-N,O(C(=O)C)C1CCC2C3C(CCC12C)c1c(cc(OC(=O)C)cc1)CC3,C8H8O3,356.46201,4.6810,4,324.38,0,83.106369,0,"(17-acetoxy-13-methyl-6,7,8,9,11,12,14,15,16,17-decahydrocyclopenta[a]phenanthren-3-yl) acetate"
"InChI=1S/C24H32O4/c1-4-22(25)27-16-7-9-17-15(14-16)6-8-19-18(17)12-13-24(3)20(19)10-11-21(24)28-23(26)5-2/h7,9,14,18-21H,4-6,8,10-13H2,1-3H3",JQIYNMYZKRGDFK-UHFFFAOYSA-N,O(C(=O)CC)C1CCC2C3C(CCC12C)c1c(cc(OC(=O)CC)cc1)CC3,C8H9NO2,384.51599,5.6310,6,357.75,1,90.559212,1,"(13-methyl-17-propanoyloxy-6,7,8,9,11,12,14,15,16,17-decahydrocyclopenta[a]phenanthren-3-yl) propanoate"
"InChI=1S/C21H28O3/c1-3-20(23)24-19-9-8-18-17-6-4-13-12-14(22)5-7-15(13)16(17)10-11-21(18,19)2/h5,7,12,16-19,22H,3-4,6,8-11H2,1-2H3",PQCRZWCSVWBYSC-UHFFFAOYSA-N,O(C(=O)CC)C1CCC2C3C(CCC12C)c1c(cc(O)cc1)CC3,C9H10O3,328.452,4.9150,3,303.25,0,81.842789,0,"(3-hydroxy-13-methyl-6,7,8,9,11,12,14,15,16,17-decahydrocyclopenta[a]phenanthren-17-yl) propanoate"
"InChI=1S/C23H32O3/c1-3-4-5-22(25)26-21-11-10-20-19-8-6-15-14-16(24)7-9-17(15)18(19)12-13-23(20,21)2/h7,9,14,18-21,24H,3-6,8,10-13H2,1-2H3",RSEPBGGWRJCQGY-UHFFFAOYSA-N,O(C(=O)CCCC)C1CCC2C3C(CCC12C)c1c(cc(O)cc1)CC3,C9H8O2,356.50598,5.7990,5,330.38,1,72.464043,1,"(3-hydroxy-13-methyl-6,7,8,9,11,12,14,15,16,17-decahydrocyclopenta[a]phenanthren-17-yl) pentanoate"
"InChI=1S/C23H32Cl2NO6P/c1-23-9-8-18-17-5-3-16(31-22(27)26(12-10-24)13-11-25)14-15(17)2-4-19(18)20(23)6-7-21(23)32-33(28,29)30/h3,5,14,18-21H,2,4,6-13H2,1H3,(H2,28,29,30)",ADFOJJHRTBFFOF-UHFFFAOYSA-N,ClCCN(CCCl)C(Oc1cc2CCC3C4CCC(OP(O)(O)=O)C4(CCC3c2cc1)C)=O,C10H11ClO3,520.39001,4.1540,9,404.75,1,329.17465,1,"(13-methyl-17-phosphonooxy-6,7,8,9,11,12,14,15,16,17-decahydrocyclopenta[a]phenanthren-3-yl) <I>N</I>,<I>N</I>-bis(2-chloroethyl)carbamate"
"InChI=1S/C18H24O3/c1-18-7-6-13-12-5-3-11(19)8-10(12)2-4-14(13)15(18)9-16(20)17(18)21/h3,5,8,13-17,19-21H,2,4,6-7,9H2,1H3",PROQIPRRNZUXQM-UHFFFAOYSA-N,OC1C2(C(CC1O)C1C(CC2)c2c(cc(O)cc2)CC1)C,C10H11N3O3S,288.38699,2.8360,0,251.88,0,135.58165,0,"13-methyl-6,7,8,9,11,12,14,15,16,17-decahydrocyclopenta[a]phenanthrene-3,16,17-triol"
"InChI=1S/C29H32O6/c1-17(30)33-26-16-25-24-11-9-20-15-21(35-28(32)19-7-5-4-6-8-19)10-12-22(20)23(24)13-14-29(25,3)27(26)34-18(2)31/h4-8,10,12,15,23-27H,9,11,13-14,16H2,1-3H3",VQHGRIUWSVCJPX-UHFFFAOYSA-N,O(C(=O)C)C1C2(C(CC1OC(=O)C)C1C(CC2)c2c(cc(OC(=O)c3ccccc3)cc2)CC1)C,C10H12O3,476.569,5.6687,7,435.13,1,94.919991,1,"(16,17-diacetoxy-13-methyl-6,7,8,9,11,12,14,15,16,17-decahydrocyclopenta[a]phenanthren-3-yl) benzoate"
"InChI=1S/C25H30O3/c1-25-12-11-20-19-10-8-18(28-15-16-5-3-2-4-6-16)13-17(19)7-9-21(20)22(25)14-23(26)24(25)27/h2-6,8,10,13,20-24,26-27H,7,9,11-12,14-15H2,1H3",GDUPBUZZJUIEDX-UHFFFAOYSA-N,O(Cc1ccccc1)c1cc2CCC3C4CC(O)C(O)C4(CCC3c2cc1)C,C12H7Cl3O2,378.51199,4.8880,3,354.25,0,83.719818,0,"3-benzyloxy-13-methyl-6,7,8,9,11,12,14,15,16,17-decahydrocyclopenta[a]phenanthrene-16,17-diol"
"InChI=1S/C27H36O6/c1-5-23(28)31-17-9-11-18-16(14-17)8-10-20-19(18)12-13-27(4)21(20)15-22(32-24(29)6-2)26(27)33-25(30)7-3/h9,11,14,19-22,26H,5-8,10,12-13,15H2,1-4H3",ONMZMZJEZHMWQL-UHFFFAOYSA-N,O(C(=O)CC)C1C2(C(CC1OC(=O)CC)C1C(CC2)c2c(cc(OC(=O)CC)cc2)CC1)C,C13H10N2O3S,456.57898,5.4317,9,417.00,1,131.56497,1,"[13-methyl-16,17-di(propanoyloxy)-6,7,8,9,11,12,14,15,16,17-decahydrocyclopenta[a]phenanthren-3-yl] propanoate"
"InChI=1S/C20H24O3/c1-12(21)23-14-4-6-15-13(11-14)3-5-17-16(15)9-10-20(2)18(17)7-8-19(20)22/h4,6,11,16-18H,3,5,7-10H2,1-2H3",KDPQTPZDVJHMET-UHFFFAOYSA-N,O(C(=O)C)c1cc2CCC3C4CCC(=O)C4(CCC3c2cc1)C,C13H18O2,312.409,3.4810,2,286.88,0,77.774933,1,"(13-methyl-17-oxo-7,8,9,11,12,14,15,16-octahydro-6<I>H</I>-cyclopenta[a]phenanthren-3-yl) acetate"
"InChI=1S/C22H26O5/c1-22-11-10-16-15-5-3-14(27-21(26)9-8-20(24)25)12-13(15)2-4-17(16)18(22)6-7-19(22)23/h3,5,12,16-18H,2,4,6-11H2,1H3,(H,24,25)",VSHNBNRUBKFQCR-UHFFFAOYSA-N,O(C(=O)CCC(O)=O)c1cc2CCC3C4CCC(=O)C4(CCC3c2cc1)C,C13H9Cl3N2O,370.44498,3.0360,5,327.13,0,153.06125,0,"4-[(13-methyl-17-oxo-7,8,9,11,12,14,15,16-octahydro-6<I>H</I>-cyclopenta[a]phenanthren-3-yl)oxy]-4-oxo-butanoic acid"
"InChI=1S/C21H27NO2/c1-3-22(4-2)16-17-24-21-13-9-8-12-19(21)20(23)15-14-18-10-6-5-7-11-18/h5-13H,3-4,14-17H2,1-2H3",OEGDFSLNGABBKJ-UHFFFAOYSA-N,O(CCN(CC)CC)c1ccccc1C(=O)CCc1ccccc1,C14H12O3,325.452,4.1100,10,336.25,0,37.18111,1,1-[2-[2-(diethylamino)ethoxy]phenyl]-3-phenyl-propan-1-one
"InChI=1S/C7H10N4O4/c12-4-2-8-6(13)5-10-3-1-9-7(10)11(14)15/h1,3,12H,2,4-5H2,(H,8,13)",WCDWBPCFGJXFJZ-UHFFFAOYSA-N,OCCNC(=O)Cn1ccnc1[N+](=O)[O-],C15H12N2O,214.181,-1.2330,6,178.75,0,253.71021,0,<I>N</I>-(2-hydroxyethyl)-2-(2-nitroimidazol-1-yl)acetamide
"InChI=1S/C14H19N5O2/c1-5-19-13-10(8-16-19)12(18-17-9(3)4)11(7-15-13)14(20)21-6-2/h7-8H,5-6H2,1-4H3,(H,15,18)",OPQRBXUBWHDHPQ-UHFFFAOYSA-N,O(C(=O)c1cnc2n(ncc2c1NN=C(C)C)CC)CC,C4H4KNO4S,289.33899,3.2705,6,276.13,0,97.056244,1,"ethyl 1-ethyl-4-(2-isopropylidenehydrazino)pyrazolo[3,4-b]pyridine-5-carboxylate"
"InChI=1S/C13H12Cl2O4/c1-3-7(2)13(18)8-4-5-9(12(15)11(8)14)19-6-10(16)17/h4-5H,2-3,6H2,1H3,(H,16,17)",AVOLMBLBETYQHX-UHFFFAOYSA-N,Clc1c(Cl)c(OCC(O)=O)ccc1C(=O)C(CC)=C,C7H6O3,303.14099,3.4530,6,248.50,0,174.24837,1,"2-[2,3-dichloro-4-(2-methylenebutanoyl)phenoxy]acetic acid"
"InChI=1S/C10H24N2O2/c1-3-9(7-13)11-5-6-12-10(4-2)8-14/h9-14H,3-8H2,1-2H3",AEUTYOVWOVBAKS-UHFFFAOYSA-N,OCC(NCCNC(CC)CO)CC,C7H8N4O2,204.314,0.2720,9,198.88,0,129.63531,0,2-[2-[1-(hydroxymethyl)propylamino]ethylamino]butan-1-ol
"InChI=1S/C24H29NO4/c1-5-26-21-10-9-17(14-22(21)27-6-2)13-20-19-16-24(29-8-4)23(28-7-3)15-18(19)11-12-25-20/h9-12,14-16H,5-8,13H2,1-4H3",ZOWYFYXTIWQBEP-UHFFFAOYSA-N,O(CC)c1cc(ccc1OCC)Cc1nccc2c1cc(OCC)c(OCC)c2,C8H10N4O2,395.49899,4.7015,10,393.00,1,53.653393,1,"1-[(3,4-diethoxyphenyl)methyl]-6,7-diethoxy-isoquinoline"
"InChI=1S/C7H9ClO/c1-3-7(9,4-2)5-6-8/h1,5-6,9H,4H2,2H3",ZEHYJZXQEQOSON-UHFFFAOYSA-N,Cl\C=C\C(O)(CC)C#C,C8H14ClN5,144.601,1.8220,3,133.25,0,50.409504,0,(<I>E</I>)-1-chloro-3-ethyl-pent-1-en-4-yn-3-ol
"InChI=1S/C9H11NO2/c1-2-12-8-6-4-3-5-7(8)9(10)11/h3-6H,2H2,1H3,(H2,10,11)",SBNKFTQSBPKMBZ-UHFFFAOYSA-N,O(CC)c1ccccc1C(=O)N,C8H8O3,165.192,1.1440,3,159.75,0,97.365829,1,2-ethoxybenzamide
"InChI=1S/C4H10O/c1-3-5-4-2/h3-4H2,1-2H3",RTZKZFJDLAIYFH-UHFFFAOYSA-N,O(CC)CC,C8H9NO2,74.123001,0.8900,2,81.88,0,31.821167,1,ethoxyethane
"InChI=1S/C9H13NO2/c1-2-9(12-8(10)11)6-4-3-5-7-9/h1H,3-7H2,(H2,10,11)",GXRZIMHKGDIBEW-UHFFFAOYSA-N,O(C(=O)N)C1(CCCCC1)C#C,C9H10O3,167.20799,1.8240,3,152.63,0,112.86049,1,(1-ethynylcyclohexyl) carbamate
"InChI=1S/C20H24O2/c1-3-20(22)11-9-18-17-6-4-13-12-14(21)5-7-15(13)16(17)8-10-19(18,20)2/h1,5,7,12,16-18,21-22H,4,6,8-11H2,2H3",BFPYWIDHMRZLRN-UHFFFAOYSA-N,OC1(CCC2C3C(CCC12C)c1c(cc(O)cc1)CC3)C#C,C9H8O2,296.41,4.2230,1,273.50,0,84.224045,0,"17-ethynyl-13-methyl-7,8,9,11,12,14,15,16-octahydro-6<I>H</I>-cyclopenta[a]phenanthrene-3,17-diol"
"InChI=1S/C9H22O4P2S4/c1-5-10-14(16,11-6-2)18-9-19-15(17,12-7-3)13-8-4/h5-9H2,1-4H3",RIZMRRKBZQXFOY-UHFFFAOYSA-N,S(P(=S)(OCC)OCC)CSP(=S)(OCC)OCC,C10H11ClO3,384.483,4.3940,12,266.75,1,201.64305,1,diethoxyphosphinothioylsulfanylmethylsulfanyl-diethoxy-thioxo-&lambda;<sup>5</sup>-phosphane
"InChI=1S/C21H28O2/c1-4-21(23)12-9-18-16-6-5-14-13-15(22)7-10-19(14,2)17(16)8-11-20(18,21)3/h1,13,16-18,23H,5-12H2,2-3H3",CHNXZKVNWQUJIB-UHFFFAOYSA-N,OC1(CCC2C3C(CCC12C)C1(C(=CC(=O)CC1)CC3)C)C#C,C10H11N3O3S,312.453,3.4740,1,274.88,0,84.193672,1,"17-ethynyl-17-hydroxy-10,13-dimethyl-2,6,7,8,9,11,12,14,15,16-decahydro-1<I>H</I>-cyclopenta[a]phenanthren-3-one"
"InChI=1S/C8H19O2PS2/c1-4-7-12-11(9,10-6-3)13-8-5-2/h4-8H2,1-3H3",VJYFKVYYMZPMAB-UHFFFAOYSA-N,S(P(SCCC)(OCC)=O)CCC,C10H12O3,242.34399,3.4660,8,189.00,0,101.71099,0,1-[ethoxy(propylsulfanyl)phosphoryl]sulfanylpropane
"InChI=1S/C19H24N2S/c1-4-20(5-2)15(3)14-21-16-10-6-8-12-18(16)22-19-13-9-7-11-17(19)21/h6-13,15H,4-5,14H2,1-3H3",CDOZDBSBBXSXLB-UHFFFAOYSA-N,S1c2c(N(c3c1cccc3)CC(N(CC)CC)C)cccc2,C12H7Cl3O2,312.48099,4.6970,5,297.50,1,45.603333,1,"<I>N</I>,<I>N</I>-diethyl-1-phenothiazin-10-yl-propan-2-amine"
"InChI=1S/C7H11NO2/c1-3-7(2)4-5(9)8-6(7)10/h3-4H2,1-2H3,(H,8,9,10)",HAPOVYFOVVWLRS-UHFFFAOYSA-N,O=C1NC(=O)CC1(CC)C,C13H10N2O3S,141.17,0.2600,1,124.88,0,114.88656,0,"3-ethyl-3-methyl-pyrrolidine-2,5-dione"
"InChI=1S/C11H12N2O2/c1-2-13-10(14)9(12-11(13)15)8-6-4-3-5-7-8/h3-7,9H,2H2,1H3,(H,12,15)",SZQIFWWUIBRPBZ-UHFFFAOYSA-N,O=C1N(CC)C(=O)NC1c1ccccc1,C13H18O2,204.22899,1.1330,2,195.00,0,108.65791,1,"3-ethyl-5-phenyl-imidazolidine-2,4-dione"
"InChI=1S/C14H19NO/c1-5-16-11-6-7-13-12(8-11)10(2)9-14(3,4)15-13/h6-9,15H,5H2,1-4H3",DECIPOUIJURFOJ-UHFFFAOYSA-N,O(CC)c1cc2c(NC(C=C2C)(C)C)cc1,C13H9Cl3N2O,217.312,3.2620,2,219.38,0,28.452238,1,"6-ethoxy-2,2,4-trimethyl-1<I>H</I>-quinoline"
"InChI=1S/C14H11NO3/c1-2-17-10-4-6-12-14(8-10)18-13-7-9(16)3-5-11(13)15-12/h3-8H,2H2,1H3",CRCWUBLTFGOMDD-UHFFFAOYSA-N,O1C2=CC(=O)C=CC2=Nc2c1cc(OCC)cc2,C14H12O3,241.24599,2.0940,2,228.38,0,81.778313,0,7-ethoxyphenoxazin-3-one
"InChI=1S/C9H10N2O3S2/c1-2-14-6-3-4-7-8(5-6)15-9(11-7)16(10,12)13/h3-5H,2H2,1H3,(H2,10,12,13)",OUZWUKMCLIBBOG-UHFFFAOYSA-N,s1c2cc(OCC)ccc2nc1S(=O)(=O)N,C15H12N2O,258.32199,1.2950,3,197.63,0,176.95717,1,"6-ethoxy-1,3-benzothiazole-2-sulfonamide"
"InChI=1S/C16H23NO6/c1-7-22-15(20)13-10(8-11(18)21-6)12(9(2)17-13)14(19)23-16(3,4)5/h17H,7-8H2,1-6H3",UQTOZWSPTZXGDC-UHFFFAOYSA-N,O(C(=O)c1c(CC(OC)=O)c([nH]c1C)C(OCC)=O)C(C)(C)C,C4H4KNO4S,325.36099,2.3520,9,285.13,0,151.17911,0,"<I>O</I>4-tert-butyl <I>O</I>2-ethyl 3-(2-methoxy-2-oxo-ethyl)-5-methyl-1<I>H</I>-pyrrole-2,4-dicarboxylate"
"InChI=1S/C5H11NO2S/c1-2-8-5(7)4(6)3-9/h4,9H,2-3,6H2,1H3",YVKSGVDJQXLXDV-UHFFFAOYSA-N,SCC(N)C(OCC)=O,C7H6O3,149.214,0.0560,4,124.50,0,158.40181,1,ethyl 2-amino-3-sulfanyl-propanoate
"InChI=1S/C22H34O2/c1-3-5-6-7-8-9-10-11-12-13-14-15-16-17-18-19-20-21-22(23)24-4-2/h5-6,8-9,11-12,14-15,17-18H,3-4,7,10,13,16,19-21H2,1-2H3",SSQPWTVBQMWLSZ-UHFFFAOYSA-N,O(C(=O)CCCC=CCC=CCC=CCC=CCC=CCC)CC,C7H8N4O2,330.51199,5.1910,15,363.13,1,172.48019,1,"ethyl (5<I>E</I>,8<I>E</I>,11<I>E</I>,14<I>E</I>,17<I>E</I>)-icosa-5,8,11,14,17-pentaenoate"
"InChI=1S/C18H14ClFN2O3/c1-2-25-18(24)16-17(23)21-14-8-7-10(19)9-12(14)15(22-16)11-5-3-4-6-13(11)20/h3-9,16H,2H2,1H3,(H,21,23)",CUCHJCMWNFEYOM-UHFFFAOYSA-N,Clc1cc2c(NC(=O)C(N=C2c2ccccc2F)C(OCC)=O)cc1,C8H10N4O2,360.772,3.2940,4,309.13,0,118.43404,0,"ethyl 7-chloro-5-(2-fluorophenyl)-2-oxo-1,3-dihydro-1,4-benzodiazepine-3-carboxylate"