InChI,Key,smiles,Formula,Weight,logP(o/w),b_rotN,vol,lip_violation,ASA_P,Natural,ChemicalName
"InChI=1S/C22H36O5/c1-4-5-14-22(2,3)20(25)13-12-17-16(18(23)15-19(17)24)10-8-6-7-9-11-21(26)27/h6,8,12-13,16-17,19-20,24-25H,4-5,7,9-11,14-15H2,1-3H3,(H,26,27)",QAOBBBBDJSWHMU-UHFFFAOYSA-N,OC1CC(=O)C(CC=CCCCC(O)=O)C1C=CC(O)C(CCCC)(C)C,C8H9NO2,380.52499,2.8620,12,354.88,0,203.29141,0,"(<I>E</I>)-7-[3-hydroxy-2-[(<I>E</I>)-3-hydroxy-4,4-dimethyl-oct-1-enyl]-5-oxo-cyclopentyl]hept-5-enoic acid"
"InChI=1S/C17H22O2/c1-3-5-6-7-8-9-10-14-17(19)15-12-11-13-16(18)4-2/h3-4,10,14,16-19H,1-2,5-9H2",OLUQMFYBNOJBQQ-UHFFFAOYSA-N,OC(C=CCCCCCC=C)C#CC#CC(O)C=C,C9H10O3,258.36099,4.1060,11,281.63,0,232.66483,1,"(9<I>E</I>)-heptadeca-1,9,16-trien-4,6-diyne-3,8-diol"
"InChI=1S/C17H22O/c1-3-5-6-7-8-9-10-11-12-13-14-15-16-17(18)4-2/h3-4,10-11,17-18H,1-2,5-9,12H2",JRLHSTVTOOELAF-UHFFFAOYSA-N,OC(C=C)C#CC#CCC=CCCCCCC=C,C9H8O2,242.362,4.7670,11,279.75,0,207.79083,1,"(9<I>E</I>)-heptadeca-1,9,16-trien-4,6-diyn-3-ol"
"InChI=1S/C21H31NO4/c1-14-7-5-9-16(20(23)24)10-6-8-15(2)13-18-17(12-11-14)19(22(3)4)21(25)26-18/h7,10,13,17-19H,5-6,8-9,11-12H2,1-4H3,(H,23,24)",OZDCIUPGRCZDCP-UHFFFAOYSA-N,O1C2C(CCC(=CCCC(=CCCC(=C2)C)C(O)=O)C)C(N(C)C)C1=O,C10H11ClO3,361.48199,2.0860,2,313.88,0,188.44734,0,"(6<I>Z</I>,10<I>Z</I>,14<I>Z</I>)-3-(dimethylamino)-6,14-dimethyl-2-oxo-3<I>a</I>,4,5,8,9,12,13,15<I>a</I>-octahydro-3<I>H</I>-cyclotetradeca[b]furan-10-carboxylic acid"
"InChI=1S/C18H32O2/c1-2-3-4-5-6-7-8-9-10-11-12-13-14-15-16-17-18(19)20/h1H,3-17H2,(H,19,20)",DZIILFGADWDKMF-UHFFFAOYSA-N,OC(=O)CCCCCCCCCCCCCCCC#C,C10H11N3O3S,280.452,6.0230,16,295.25,1,120.80343,1,octadec-17-ynoic acid
"InChI=1S/C23H30O5/c24-18(13-12-17-8-4-3-5-9-17)14-15-20-19(21(25)16-22(20)26)10-6-1-2-7-11-23(27)28/h1,3-6,8-9,14-15,18-20,22,24,26H,2,7,10-13,16H2,(H,27,28)",FOBVMYJQWZOGGJ-UHFFFAOYSA-N,OC1CC(=O)C(CC=CCCCC(O)=O)C1C=CC(O)CCc1ccccc1,C10H12O3,386.48798,2.1420,11,368.13,0,220.5589,0,(<I>E</I>)-7-[3-hydroxy-2-[(<I>E</I>)-3-hydroxy-5-phenyl-pent-1-enyl]-5-oxo-cyclopentyl]hept-5-enoic acid
"InChI=1S/C25H32O2/c1-3-25(26)15-13-23-22-10-8-17-16-19(27-18-6-4-5-7-18)9-11-20(17)21(22)12-14-24(23,25)2/h1,9,11,16,18,21-23,26H,4-8,10,12-15H2,2H3",PWZUUYSISTUNDW-UHFFFAOYSA-N,O(C1CCCC1)c1cc2CCC3C4CCC(O)(C#C)C4(CCC3c2cc1)C,C12H7Cl3O2,364.52899,6.0240,3,340.75,1,37.092102,1,"3-(cyclopentoxy)-17-ethynyl-13-methyl-7,8,9,11,12,14,15,16-octahydro-6<I>H</I>-cyclopenta[a]phenanthren-17-ol"
"InChI=1S/C22H33NO4/c1-20-9-6-15(23-27-13-19(24)25)12-14(20)4-5-16-17(20)7-10-21(2)18(16)8-11-22(21,3)26/h12,16-18,26H,4-11,13H2,1-3H3,(H,24,25)",VUVNLXFEGKNTAK-UHFFFAOYSA-N,OC1(CCC2C3C(CCC12C)C1(C(=CC(=NOCC(O)=O)CC1)CC3)C)C,C13H10N2O3S,375.509,3.7030,3,317.88,0,156.42766,1,"2-[(E)-(17-hydroxy-10,13,17-trimethyl-2,6,7,8,9,11,12,14,15,16-decahydro-1<I>H</I>-cyclopenta[a]phenanthren-3-ylidene)amino]oxyacetic acid"
"InChI=1S/C20H32O6/c1-14(21)7-6-8-15(22)11-12-17-16(18(23)13-19(17)24)9-4-2-3-5-10-20(25)26/h2,4,11-12,14-17,19,21-22,24H,3,5-10,13H2,1H3,(H,25,26)",WTJYDBMHYPQFNJ-UHFFFAOYSA-N,OC1CC(=O)C(CC=CCCCC(O)=O)C1C=CC(O)CCCC(O)C,C13H18O2,368.47,0.9180,12,340.00,0,232.56113,0,"(<I>E</I>)-7-[2-[(<I>E</I>)-3,7-dihydroxyoct-1-enyl]-3-hydroxy-5-oxo-cyclopentyl]hept-5-enoic acid"
"InChI=1S/C20H34O6/c1-14(21)7-6-8-15(22)11-12-17-16(18(23)13-19(17)24)9-4-2-3-5-10-20(25)26/h2,4,11-12,14-19,21-24H,3,5-10,13H2,1H3,(H,25,26)",UBWZMPMLSDJDSU-UHFFFAOYSA-N,OC1CC(O)C(C=CC(O)CCCC(O)C)C1CC=CCCCC(O)=O,C13H9Cl3N2O,370.48599,1.4860,12,340.00,0,266.21866,1,"(<I>E</I>)-7-[2-[(<I>E</I>)-3,7-dihydroxyoct-1-enyl]-3,5-dihydroxy-cyclopentyl]hept-5-enoic acid"
"InChI=1S/C21H17Cl3O3/c1-25-16-9-10-20(19(24)11-16)26-12-14-5-7-15(8-6-14)13-27-21-17(22)3-2-4-18(21)23/h2-11H,12-13H2,1H3",XXMDDBVNWRWNCW-UHFFFAOYSA-N,Clc1cccc(Cl)c1OCc1ccc(cc1)COc1ccc(OC)cc1Cl,C14H12O3,423.72299,7.1570,7,369.63,1,60.348419,0,"1,3-dichloro-2-[[4-[(2-chloro-4-methoxy-phenoxy)methyl]phenyl]methoxy]benzene"
InChI=1S/C9H5N3O2/c13-9-12-7-4-2-1-3-6(7)10-5-8(12)11-14-9/h1-5H,LZMHWZHOZLVYDL-UHFFFAOYSA-N,O1N=C2N(c3c(N=C2)cccc3)C1=O,C15H12N2O,187.15799,1.4400,0,167.38,0,132.81754,1,"[1,2,4]oxadiazolo[4,3-a]quinoxalin-1-one"
"InChI=1S/C18H16O3/c19-16-9-15-13(17(20)18(16)21)6-5-12-7-10-3-1-2-4-11(10)8-14(12)15/h1-8,16-21H,9H2",XKOJNRIIGYARBJ-UHFFFAOYSA-N,OC1C(O)Cc2c(ccc3c2cc2c(c3)cccc2)C1O,C4H4KNO4S,280.323,2.7810,0,259.25,0,102.90131,1,"1,2,3,4-tetrahydrobenzo[a]anthracene-2,3,4-triol"
"InChI=1S/C14H21N5O4/c1-12(21)8(5-20)23-14(3,13(12,2)22-4)19-7-18-9-10(15)16-6-17-11(9)19/h6-8,20-21H,5H2,1-4H3,(H2,15,16,17)",SMMFMADLCOMPIU-UHFFFAOYSA-N,O1C(n2c3ncnc(N)c3nc2)(C)C(OC)(C)C(O)(C)C1CO,C7H6O3,323.353,0.0511,3,255.38,0,237.392,0,"5-(6-aminopurin-9-yl)-2-(hydroxymethyl)-4-methoxy-3,4,5-trimethyl-tetrahydrofuran-3-ol"
"InChI=1S/C9H13FN2O10P2/c10-5-3-8(12-2-1-7(13)11-9(12)14)21-6(5)4-20-24(18,19)22-23(15,16)17/h1-2,5-6,8H,3-4H2,(H,18,19)(H,11,13,14)(H2,15,16,17)",WLQBZMZTRNPUDL-UHFFFAOYSA-N,P(OCC1OC(N2C=CC(=O)NC2=O)CC1F)(OP(O)(O)=O)(O)=O,C7H8N4O2,390.15298,-2.7930,6,252.75,1,390.41556,1,"[5-(2,4-dioxopyrimidin-1-yl)-3-fluoro-tetrahydrofuran-2-yl]methyl phosphono hydrogen phosphate"
"InChI=1S/C10H16N5O11P3/c11-9-8-10(13-4-12-9)15(5-14-8)7-2-1-6(24-7)3-23-28(19,20)26-29(21,22)25-27(16,17)18/h4-7H,1-3H2,(H,19,20)(H,21,22)(H2,11,12,13)(H2,16,17,18)",OAKPWEUQDVLTCN-UHFFFAOYSA-N,P(OCC1OC(n2c3ncnc(N)c3nc2)CC1)(OP(OP(O)(O)=O)(O)=O)(O)=O,C8H10N4O2,475.18399,-2.9399,8,301.88,2,452.13513,0,[[5-(6-aminopurin-9-yl)tetrahydrofuran-2-yl]methoxy-hydroxy-phosphoryl] phosphono hydrogen phosphate
"InChI=1S/C9H16N3O12P3/c10-7-3-4-12(9(13)11-7)8-2-1-6(22-8)5-21-26(17,18)24-27(19,20)23-25(14,15)16/h3-4,6,8H,1-2,5H2,(H,17,18)(H,19,20)(H2,10,11,13)(H2,14,15,16)",ARLKCWCREKRROD-UHFFFAOYSA-N,P(OCC1OC(N2C=CC(=NC2=O)N)CC1)(OP(OP(O)(O)=O)(O)=O)(O)=O,C8H14ClN5,451.15799,-3.1500,8,281.75,2,445.43619,1,[[5-(4-amino-2-oxo-pyrimidin-1-yl)tetrahydrofuran-2-yl]methoxy-hydroxy-phosphoryl] phosphono hydrogen phosphate
"InChI=1S/C10H16N5O12P3/c11-10-13-8-7(9(16)14-10)12-4-15(8)6-2-1-5(25-6)3-24-29(20,21)27-30(22,23)26-28(17,18)19/h4-6H,1-3H2,(H,20,21)(H,22,23)(H2,17,18,19)(H3,11,13,14,16)",HDRRAMINWIWTNU-UHFFFAOYSA-N,P(OCC1OC(n2c3NC(=NC(=O)c3nc2)N)CC1)(OP(OP(O)(O)=O)(O)=O)(O)=O,C8H8O3,491.18298,-2.8410,8,310.13,2,491.69772,1,[[5-(2-amino-6-oxo-3<I>H</I>-purin-9-yl)tetrahydrofuran-2-yl]methoxy-hydroxy-phosphoryl] phosphono hydrogen phosphate
"InChI=1S/C10H14N5O5P/c1-5-6(20-21(16,17)18)2-7(19-5)15-4-14-8-9(11)12-3-13-10(8)15/h3-7H,2H2,1H3,(H2,11,12,13)(H2,16,17,18)",NFGZMOICZSFFLB-UHFFFAOYSA-N,P(OC1CC(OC1C)n1c2ncnc(N)c2nc1)(O)(O)=O,C8H9NO2,315.22598,-1.1559,3,238.38,0,301.41797,0,[5-(6-aminopurin-9-yl)-2-methyl-tetrahydrofuran-3-yl] dihydrogen phosphate
"InChI=1S/C27H28N6O/c1-3-34-21-8-4-18(5-9-21)26-28-22-10-6-19(16-24(22)30-26)27-29-23-11-7-20(17-25(23)31-27)33-14-12-32(2)13-15-33/h4-11,16-17H,3,12-15H2,1-2H3,(H,28,30)(H,29,31)",PRDFBSVERLRRMY-UHFFFAOYSA-N,O(CC)c1ccc(cc1)-c1[nH]c2c(n1)cc(cc2)-c1[nH]c2c(n1)cc(N1CCN(CC1)C)cc2,C9H10O3,452.56198,4.1390,5,442.63,0,134.02315,1,2-(4-ethoxyphenyl)-5-[5-(4-methylpiperazin-1-yl)-1<I>H</I>-benzimidazol-2-yl]-1<I>H</I>-benzimidazole
"InChI=1S/C9H12N2O4/c1-5-6(12)4-8(15-5)11-3-2-7(13)10-9(11)14/h2-3,5-6,8,12H,4H2,1H3,(H,10,13,14)",FDCFKLBIAIKUKB-UHFFFAOYSA-N,O1C(C)C(O)CC1N1C=CC(=O)NC1=O,C9H8O2,212.205,-0.7980,1,180.50,0,171.62703,0,"1-(4-hydroxy-5-methyl-tetrahydrofuran-2-yl)pyrimidine-2,4-dione"
"InChI=1S/C32H48O9/c1-17-26(35)27(37-5)28(40-18(2)33)29(39-17)41-21-8-11-30(3)20(15-21)6-7-24-23(30)9-12-31(4)22(10-13-32(24,31)36)19-14-25(34)38-16-19/h14,17,20-24,26-29,35-36H,6-13,15-16H2,1-5H3",UYQMTWMXBKEHJQ-UHFFFAOYSA-N,O1C(C)C(O)C(OC)C(OC(=O)C)C1OC1CC2CCC3C(CCC4(C)C(CCC34O)C3=CC(OC3)=O)C2(CC1)C,C10H11ClO3,576.72699,3.7605,6,469.63,1,204.01848,1,"[5-hydroxy-2-[[14-hydroxy-10,13-dimethyl-17-(5-oxo-2<I>H</I>-furan-3-yl)-1,2,3,4,5,6,7,8,9,11,12,15,16,17-tetradecahydrocyclopenta[a]phenanthren-3-yl]oxy]-4-methoxy-6-methyl-tetrahydropyran-3-yl] acet ate"
"InChI=1S/C10H14N5O6P/c11-9-8-10(13-3-12-9)15(4-14-8)7-1-5(6(2-16)20-7)21-22(17,18)19/h3-7,16H,1-2H2,(H2,11,12,13)(H2,17,18,19)",UEUPTUCWIHOIMK-UHFFFAOYSA-N,P(OC1CC(OC1CO)n1c2ncnc(N)c2nc1)(O)(O)=O,C10H11N3O3S,331.22501,-2.1909,4,241.13,1,345.76367,1,[5-(6-aminopurin-9-yl)-2-(hydroxymethyl)tetrahydrofuran-3-yl] dihydrogen phosphate
"InChI=1S/C10H11N5O2/c11-9-7-10(13-3-12-9)15(4-14-7)5-1-2-6(16)8(5)17/h1-6,8,16-17H,(H2,11,12,13)",RQPALADHFYHEHK-UHFFFAOYSA-N,OC1C(n2c3ncnc(N)c3nc2)C=CC1O,C10H12O3,233.231,-1.0969,1,197.88,0,249.49515,0,"5-(6-aminopurin-9-yl)cyclopent-3-ene-1,2-diol"
"InChI=1S/C23H38O3/c1-2-3-4-5-6-7-8-9-10-11-12-13-14-15-21(24)18-20-19-22(25)16-17-23(20)26/h9-10,16-17,19,21,24-26H,2-8,11-15,18H2,1H3",SYEWMKBCQCNFPV-UHFFFAOYSA-N,Oc1ccc(O)cc1CC(O)CCCCCC=CCCCCCCCC,C12H7Cl3O2,362.55399,6.7650,15,366.88,1,133.54828,1,"2-[(<I>E</I>)-2-hydroxyheptadec-8-enyl]benzene-1,4-diol"
"InChI=1S/C20H20O5/c1-11(2)3-5-14-17(22)8-7-13(19(14)23)16-10-25-18-9-12(21)4-6-15(18)20(16)24/h3-4,6-9,16,21-23H,5,10H2,1-2H3",LNXMEHXPWCVVID-UHFFFAOYSA-N,O1CC(c2ccc(O)c(CC=C(C)C)c2O)C(=O)c2c1cc(O)cc2,C13H10N2O3S,340.375,3.1490,3,312.13,0,166.84293,0,"3-[2,4-dihydroxy-3-(3-methylbut-2-enyl)phenyl]-7-hydroxy-chroman-4-one"
"InChI=1S/C6H13NO4/c8-1-3-5(10)6(11)4(2-9)7-3/h3-11H,1-2H2",PFYHYHZGDNWFIF-UHFFFAOYSA-N,OC1C(O)C(NC1CO)CO,C13H9Cl3N2O,163.17299,-2.7450,2,125.38,0,209.73917,1,"2,5-bis(hydroxymethyl)pyrrolidine-3,4-diol"
"InChI=1S/C6H15BNO5/c8-5(6(9)10)3-1-2-4-7(11,12)13/h5,11-13H,1-4,8H2,(H,9,10)/q-1",BLVGFZFOWWBCCZ-UHFFFAOYSA-N,O[B-](O)(O)CCCCC(N)C(O)=O,C14H12O3,191.99899,-3.4197,6,155.00,1,258.52576,0,(5-amino-5-carboxy-pentyl)-trihydroxy-boranuide
"InChI=1S/C16H14BNO6S3/c19-17(20)12-5-4-6-13(9-12)18-27(23,24)16-10-15(11-25-16)26(21,22)14-7-2-1-3-8-14/h1-11,18-20H",YZOKHYPIQNIFRQ-UHFFFAOYSA-N,s1cc(S(=O)(=O)c2ccccc2)cc1S(=O)(=O)Nc1cc(ccc1)B(O)O,C15H12N2O,423.298,2.4580,6,323.50,0,254.1832,1,[3-[[4-(benzenesulfonyl)-2-thienyl]sulfonylamino]phenyl]boronic acid
"InChI=1S/C18H30O6/c1-2-3-4-7-13(19)10-11-16-14(8-5-6-9-17(21)22)15(20)12-18(23)24-16/h5-6,10-11,13-16,18-20,23H,2-4,7-9,12H2,1H3,(H,21,22)",RJHNVFKNIJQTQF-UHFFFAOYSA-N,O1C(C=CC(O)CCCCC)C(CC=CCC(O)=O)C(O)CC1O,C4H4KNO4S,342.43201,2.3140,10,309.63,0,241.55963,0,"(<I>E</I>)-5-[4,6-dihydroxy-2-[(<I>E</I>)-3-hydroxyoct-1-enyl]tetrahydropyran-3-yl]pent-3-enoic acid"
"InChI=1S/C20H20ClNO6/c1-5-22-11(4)14(20(27)28-10(2)3)15(12-8-6-7-9-13(12)21)16(18(23)24)17(22)19(25)26/h6-10H,5H2,1-4H3,(H-,23,24,25,26)/p+1",HMSIYRVIPQHZBI-UHFFFAOYSA-O,Clc1ccccc1-c1c(C(O)=O)c([n+](CC)c(C)c1C(OC(C)C)=O)C(O)=O,C7H6O3,406.84198,4.7600,7,327.38,0,164.59009,1,"4-(2-chlorophenyl)-1-ethyl-5-isopropoxycarbonyl-6-methyl-pyridin-1-ium-2,3-dicarboxylic acid"
"InChI=1S/C18H30O6/c1-2-3-4-5-12(19)6-8-14-15(17(22)11-16(14)21)10-13(20)7-9-18(23)24/h6,8,12,14-17,19,21-22H,2-5,7,9-11H2,1H3,(H,23,24)",DNKGWNLXBRCUCF-UHFFFAOYSA-N,OC1CC(O)C(C=CC(O)CCCCC)C1CC(=O)CCC(O)=O,C7H8N4O2,342.43201,1.1420,11,306.63,0,205.83138,1,"5-[3,5-dihydroxy-2-[(<I>E</I>)-3-hydroxyoct-1-enyl]cyclopentyl]-4-oxo-pentanoic acid"
"InChI=1S/C8H5Cl3O3/c9-4-1-6(11)7(2-5(4)10)14-3-8(12)13/h1-2H,3H2,(H,12,13)",SMYMJHWAQXWPDB-UHFFFAOYSA-N,Clc1cc(Cl)c(Cl)cc1OCC(O)=O,C8H10N4O2,255.48399,3.2130,3,187.13,0,110.62135,0,"2-(2,4,5-trichlorophenoxy)acetic acid"
"InChI=1S/C16H21Cl3O3/c1-3-4-5-6-7-11(2)22-16(20)10-21-15-9-13(18)12(17)8-14(15)19/h8-9,11H,3-7,10H2,1-2H3",LNNVYVOLCDEYEU-UHFFFAOYSA-N,Clc1cc(Cl)c(Cl)cc1OCC(OC(CCCCCC)C)=O,C8H14ClN5,367.69998,6.4137,10,312.25,1,50.817356,1,"1-methylheptyl 2-(2,4,5-trichlorophenoxy)acetate"
"InChI=1S/C9H7Cl3O3/c1-14-9(13)4-15-8-3-6(11)5(10)2-7(8)12/h2-3H,4H2,1H3",JUCNGUOYQGHBJC-UHFFFAOYSA-N,Clc1cc(Cl)c(Cl)cc1OCC(OC)=O,C8H8O3,269.51099,3.2287,4,205.75,0,86.305817,0,"methyl 2-(2,4,5-trichlorophenoxy)acetate"
"InChI=1S/C6H3Br3O/c7-3-1-4(8)6(10)5(9)2-3/h1-2,10H",BSWWXRFVMJHFBN-UHFFFAOYSA-N,Brc1cc(Br)cc(Br)c1O,C8H9NO2,330.80099,4.0620,0,165.13,0,29.023731,1,"2,4,6-tribromophenol"
"InChI=1S/C12H14N6/c13-10-9-11(18-12(14)17-10)15-6-8(16-9)7-4-2-1-3-5-7/h1-5,8,16H,6H2,(H5,13,14,15,17,18)",VEKRIXRQADJFAG-UHFFFAOYSA-N,n1c(N)c2NC(CNc2nc1N)c1ccccc1,C9H10O3,242.286,0.2100,1,220.63,1,228.25134,1,"6-phenyl-5,6,7,8-tetrahydropteridine-2,4-diamine"
"InChI=1S/C7H7Cl2N/c8-6-2-1-5(4-10)7(9)3-6/h1-3H,4,10H2",SJUKJZSTBBSGHF-UHFFFAOYSA-N,Clc1cc(Cl)ccc1CN,C9H8O2,176.04599,2.3810,1,144.88,0,68.35672,0,"(2,4-dichlorophenyl)methanamine"
"InChI=1S/C8H6Cl2O3/c9-5-1-2-7(6(10)3-5)13-4-8(11)12/h1-3H,4H2,(H,11,12)",OVSKIKFHRZPJSS-UHFFFAOYSA-N,Clc1cc(Cl)ccc1OCC(O)=O,C10H11ClO3,221.039,2.5860,3,169.63,0,111.41196,1,"2-(2,4-dichlorophenoxy)acetic acid"
"InChI=1S/C16H22Cl2O3/c1-3-4-5-6-7-12(2)21-16(19)11-20-15-9-8-13(17)10-14(15)18/h8-10,12H,3-7,11H2,1-2H3",GJNVTNDAZUATRV-UHFFFAOYSA-N,Clc1cc(Cl)ccc1OCC(OC(CCCCCC)C)=O,C10H11N3O3S,333.255,5.7867,10,296.63,1,40.006386,0,"1-methylheptyl 2-(2,4-dichlorophenoxy)acetate"
"InChI=1S/C9H8Cl2O3/c1-13-9(12)5-14-8-3-2-6(10)4-7(8)11/h2-4H,5H2,1H3",HWIGZMADSFQMOI-UHFFFAOYSA-N,Clc1cc(Cl)ccc1OCC(OC)=O,C10H11ClO3,235.06599,2.6017,4,190.25,0,105.6846,1,"methyl 2-(2,4-dichlorophenoxy)acetate"
"InChI=1S/C10H10Cl2O3/c11-7-3-4-9(8(12)6-7)15-5-1-2-10(13)14/h3-4,6H,1-2,5H2,(H,13,14)",YIVXMZJTEQBPQO-UHFFFAOYSA-N,Clc1cc(Cl)ccc1OCCCC(O)=O,C10H11N3O3S,249.09299,3.1160,5,204.75,0,97.729034,1,"4-(2,4-dichlorophenoxy)butanoic acid"
"InChI=1S/C11H12Cl2O3/c1-15-11(14)3-2-6-16-10-5-4-8(12)7-9(10)13/h4-5,7H,2-3,6H2,1H3",NKXSNMCGZZWMMW-UHFFFAOYSA-N,Clc1cc(Cl)ccc1OCCCC(OC)=O,C10H12O3,263.12,3.3800,6,220.88,0,79.972137,0,"methyl 4-(2,4-dichlorophenoxy)butanoate"
"InChI=1S/C7H6O4/c8-4-1-2-5(7(10)11)6(9)3-4/h1-3,8-9H,(H,10,11)",UIAFKZKHHVMJGS-UHFFFAOYSA-N,Oc1cc(O)ccc1C(O)=O,C12H7Cl3O2,154.121,1.0020,1,128.63,0,172.88629,1,"2,4-dihydroxybenzoic acid"
"InChI=1S/C14H14N2O6S/c1-21-11-4-6-12(7-5-11)23(19,20)15-13-9-10(16(17)18)3-8-14(13)22-2/h3-9,15H,1-2H3",KFMJDJOTJHGYCD-UHFFFAOYSA-N,S(=O)(=O)(Nc1cc([N+](=O)[O-])ccc1OC)c1ccc(OC)cc1,C13H10N2O3S,338.34,2.5370,6,276.63,0,215.3894,0,4-methoxy-<I>N</I>-(2-methoxy-5-nitro-phenyl)benzenesulfonamide
"InChI=1S/C6H4N2O5/c9-6-2-1-4(7(10)11)3-5(6)8(12)13/h1-3,9H",UFBJCMHMOXMLKC-UHFFFAOYSA-N,Oc1ccc([N+](=O)[O-])cc1[N+](=O)[O-],C13H18O2,184.10699,1.5030,2,141.88,0,194.19432,1,"2,4-dinitrophenol"
"InChI=1S/C6H12O5/c7-1-3-5(9)6(10)4(2-8)11-3/h3-10H,1-2H2",MCHWWJLLPNDHGL-UHFFFAOYSA-N,O1C(CO)C(O)C(O)C1CO,C13H9Cl3N2O,164.157,-2.4360,2,124.38,0,189.05858,1,"2,5-bis(hydroxymethyl)tetrahydrofuran-3,4-diol"
"InChI=1S/C6H14O11P2/c7-5-3(1-15-18(9,10)11)17-4(6(5)8)2-16-19(12,13)14/h3-8H,1-2H2,(H2,9,10,11)(H2,12,13,14)",WSMBXSQDFPTODV-UHFFFAOYSA-N,P(OCC1OC(COP(O)(O)=O)C(O)C1O)(O)(O)=O,C14H12O3,324.11499,-4.2100,6,196.38,2,352.03586,0,"[3,4-dihydroxy-5-(phosphonooxymethyl)tetrahydrofuran-2-yl]methyl dihydrogen phosphate"
"InChI=1S/C26H32N4O/c27-25(29-21-3-1-4-21)19-11-7-17(8-12-19)23-15-16-24(31-23)18-9-13-20(14-10-18)26(28)30-22-5-2-6-22/h7-16,21-22,25-26,29-30H,1-6,27-28H2",PSIYSVRPSISUSW-UHFFFAOYSA-N,o1c(ccc1-c1ccc(cc1)C(NC1CCC1)N)-c1ccc(cc1)C(NC1CCC1)N,C15H12N2O,416.569,4.7360,8,410.13,2,131.07808,1,1-[4-[5-[4-[amino-(cyclobutylamino)methyl]phenyl]-2-furyl]phenyl]-<I>N</I>'-cyclobutyl-methanediamine
"InChI=1S/C30H40N4O/c31-29(33-25-7-3-1-4-8-25)23-15-11-21(12-16-23)27-19-20-28(35-27)22-13-17-24(18-14-22)30(32)34-26-9-5-2-6-10-26/h11-20,25-26,29-30,33-34H,1-10,31-32H2",RSCUVHWEUSXGAS-UHFFFAOYSA-N,o1c(ccc1-c1ccc(cc1)C(NC1CCCCC1)N)-c1ccc(cc1)C(NC1CCCCC1)N,C4H4KNO4S,472.677,6.5040,8,464.88,2,122.85403,0,1-[4-[5-[4-[amino-(cyclohexylamino)methyl]phenyl]-2-furyl]phenyl]-<I>N</I>'-cyclohexyl-methanediamine
"InChI=1S/C17H21N5O2/c1-11-8-14(17-18-21-22(4)19-17)9-12(2)16(11)23-7-5-6-15-10-13(3)20-24-15/h8-10H,5-7H2,1-4H3",RVZKQTQAFHEOKT-UHFFFAOYSA-N,o1nc(cc1CCCOc1c(cc(cc1C)-c1nn(nn1)C)C)C,C7H6O3,327.388,2.2460,6,310.25,0,133.87271,1,"5-[3-[2,6-dimethyl-4-(2-methyltetrazol-5-yl)phenoxy]propyl]-3-methyl-isoxazole"
"InChI=1S/C23H28N4O/c24-22(25)17-9-5-15(6-10-17)13-19-3-1-2-4-20(21(19)28)14-16-7-11-18(12-8-16)23(26)27/h5-12,19-20H,1-4,13-14H2,(H3,24,25)(H3,26,27)",BXYGSMRTHHSAHZ-UHFFFAOYSA-N,O=C1C(CCCCC1Cc1ccc(cc1)C(N)=N)Cc1ccc(cc1)C(N)=N,C7H8N4O2,376.504,3.6770,6,365.00,1,249.02034,1,4-[[3-[(4-carbamimidoylphenyl)methyl]-2-oxo-cycloheptyl]methyl]benzamidine
"InChI=1S/C31H35N7O3/c1-20-16-27(28(39)34-24-14-12-23(13-15-24)26-17-33-29(32)35-26)38-31(41)36(30(40)37(38)18-20)19-25(21-8-4-2-5-9-21)22-10-6-3-7-11-22/h2-11,16-17,23-25,27H,12-15,18-19H2,1H3,(H,34,3 9)(H3,32,33,35)",OVMGNVGMEOUGCS-UHFFFAOYSA-N,O=C1N2N(CC(=CC2C(=O)NC2CCC(CC2)c2[nH]c(nc2)N)C)C(=O)N1CC(c1ccccc1)c1ccccc1,C8H10N4O2,553.66699,3.0460,8,512.25,1,251.78072,0,"<I>N</I>-[4-(2-amino-1<I>H</I>-imidazol-5-yl)cyclohexyl]-2-(2,2-diphenylethyl)-6-methyl-1,3-dioxo-5,8-dihydro-[1,2,4]triazolo[1,2-a]pyridazine-8-carboxamide"
"InChI=1S/C30H36N6O3/c1-20-16-26(28(37)33-17-21-12-14-24(15-13-21)27(31)32)36-30(39)34(29(38)35(36)18-20)19-25(22-8-4-2-5-9-22)23-10-6-3-7-11-23/h2-11,16,21,24-26H,12-15,17-19H2,1H3,(H3,31,32)(H,33,37)",HKVVMQTWGPLJEV-UHFFFAOYSA-N,O=C1N2N(CC(=CC2C(=O)NCC2CCC(CC2)C(N)=N)C)C(=O)N1CC(c1ccccc1)c1ccccc1,C8H14ClN5,528.65698,3.4130,9,487.25,1,214.07588,1,"<I>N</I>-[(4-carbamimidoylcyclohexyl)methyl]-2-(2,2-diphenylethyl)-6-methyl-1,3-dioxo-5,8-dihydro-[1,2,4]triazolo[1,2-a]pyridazine-8-carboxamide"
"InChI=1S/C15H13N3O/c16-15(17)9-5-6-12-10(7-9)8-13(18-12)11-3-1-2-4-14(11)19/h1-8,18-19H,(H3,16,17)/p+1",JPGNPKIYCTXJPG-UHFFFAOYSA-O,Oc1ccccc1-c1[nH]c2c(c1)cc(cc2)C(=[NH2+])N,C8H8O3,252.297,2.9690,2,241.75,1,181.39354,0,[amino-[2-(2-hydroxyphenyl)-1<I>H</I>-indol-5-yl]methylene]ammonium
"InChI=1S/C15H13N3O/c16-15(17)9-5-6-12-10(7-9)8-13(18-12)11-3-1-2-4-14(11)19/h1-8,18-19H,(H3,16,17)",JPGNPKIYCTXJPG-UHFFFAOYSA-N,[O-]c1ccccc1-c1[nH]c2c(c1)cc(cc2)C(=[NH2+])N,C8H9NO2,251.289,3.0900,2,241.75,0,166.92995,1,2-[5-[amino(azaniumylidene)methyl]-1<I>H</I>-indol-2-yl]phenolate
"InChI=1S/C15H13N3O2/c1-20-10-5-2-4-9(8-10)15-17-12-7-3-6-11(14(16)19)13(12)18-15/h2-8H,1H3,(H2,16,19)(H,17,18)",NVVWVYYHTKCIAE-UHFFFAOYSA-N,O(C)c1cc(ccc1)-c1[nH]c2c(n1)c(ccc2)C(=O)N,C9H10O3,267.28799,2.0510,3,253.00,0,159.7966,1,2-(3-methoxyphenyl)-1<I>H</I>-benzimidazole-4-carboxamide
"InChI=1S/C13H12N2O5S3/c1-20-11-4-2-3-10(8-11)15-6-5-9-7-12(22(14,16)17)21-13(9)23(15,18)19/h2-8H,1H3,(H2,14,16,17)",FBBLOSCXOZYUSS-UHFFFAOYSA-N,s1c2S(=O)(=O)N(C=Cc2cc1S(=O)(=O)N)c1cc(OC)ccc1,C9H8O2,372.44601,1.7540,3,273.00,0,228.46799,0,"2-(3-methoxyphenyl)-1,1-dioxo-thieno[3,2-e]thiazine-6-sulfonamide"
"InChI=1S/C11H16N2O3/c12-7-3-1-6(2-4-7)9-11(16)10(15)8(5-14)13-9/h1-4,8-11,13-16H,5,12H2",SQENVZNKXLCDLF-UHFFFAOYSA-N,OC1C(NC(CO)C1O)c1ccc(N)cc1,C10H11ClO3,224.25999,-0.9350,2,192.13,1,216.32819,1,"2-(4-aminophenyl)-5-(hydroxymethyl)pyrrolidine-3,4-diol"
"InChI=1S/C9H8BrNO4/c10-5-1-3-6(4-2-5)11-7(8(12)13)9(14)15/h1-4,7,11H,(H,12,13)(H,14,15)",LLJBZPPQIPNGNX-UHFFFAOYSA-N,Brc1ccc(NC(C(O)=O)C(O)=O)cc1,C10H11N3O3S,274.07001,1.4820,4,187.13,0,186.67415,0,2-(4-bromoanilino)propanedioic acid
"InChI=1S/C28H28Cl3FN2O4/c1-28(2,26(35)36)38-19-13-11-18(12-14-19)6-5-16-34(17-15-20-21(29)7-3-9-23(20)32)27(37)33-24-10-4-8-22(30)25(24)31/h3-4,7-14H,5-6,15-17H2,1-2H3,(H,33,37)(H,35,36)",YMWJDWJXIXITMD-UHFFFAOYSA-N,Clc1c(NC(=O)N(CCc2c(F)cccc2Cl)CCCc2ccc(OC(C(O)=O)(C)C)cc2)cccc1Cl,C10H12O3,581.89899,7.4830,13,489.88,2,101.73265,1,"2-[4-[3-[2-(2-chloro-6-fluoro-phenyl)ethyl-[(2,3-dichlorophenyl)carbamoyl]amino]propyl]phenoxy]-2-methyl-propanoic acid"
"InChI=1S/C16H20NO/c1-17(2,3)12-11-16(18)15-10-6-8-13-7-4-5-9-14(13)15/h4-10H,11-12H2,1-3H3/q+1",WZJKPXZLQTXALB-UHFFFAOYSA-N,O=C(CC[N+](C)(C)C)c1c2c(ccc1)cccc2,C12H7Cl3O2,242.342,2.4970,4,248.00,0,83.043259,1,trimethyl-[3-(1-naphthyl)-3-oxo-propyl]ammonium
"InChI=1S/C32H38N4O4S/c1-32(2)28(30(40)34-25(21-37)18-22-12-6-3-7-13-22)36-31(41-32)27(29(39)33-20-24-16-10-5-11-17-24)35-26(38)19-23-14-8-4-9-15-23/h3-17,25,27-28,31,36-37H,18-21H2,1-2H3,(H,33,39)(H,3 4,40)(H,35,38)",USQYZVYUUXQZHL-UHFFFAOYSA-N,S1C(C)(C)C(NC1C(NC(=O)Cc1ccccc1)C(=O)NCc1ccccc1)C(=O)NC(Cc1ccccc1)CO,C13H10N2O3S,574.74597,4.1020,15,525.38,1,194.76582,0,"2-[2-(benzylamino)-2-oxo-1-[(2-phenylacetyl)amino]ethyl]-<I>N</I>-(1-benzyl-2-hydroxy-ethyl)-5,5-dimethyl-thiazolidine-4-carboxamide"