InChI,Key,smiles,Formula,Weight,logP(o/w),b_rotN,vol,lip_violation,ASA_P,Natural,ChemicalName
"InChI=1S/C25H32ClFO5/c1-5-21(31)32-25(20(30)13-26)14(2)10-18-17-7-6-15-11-16(28)8-9-22(15,3)24(17,27)19(29)12-23(18,25)4/h8-9,11,14,17-19,29H,5-7,10,12-13H2,1-4H3",CBGUOGMQLZIXBE-UHFFFAOYSA-N,ClCC(=O)C1(OC(=O)CC)C2(CC(O)C3(F)C(C2CC1C)CCC1=CC(=O)C=CC13C)C,C4H4KNO4S,466.97699,4.4630,5,343.63,0,178.84332,1,"[17-(2-chloroacetyl)-9-fluoro-11-hydroxy-10,13,16-trimethyl-3-oxo-6,7,8,11,12,14,15,16-octahydrocyclopenta[a]phenanthren-17-yl] propanoate"
"InChI=1S/C26H32ClFO5/c1-5-6-22(32)33-26(21(31)14-27)15(2)11-19-18-8-7-16-12-17(29)9-10-23(16,3)25(18,28)20(30)13-24(19,26)4/h9-10,12,15,18-19H,5-8,11,13-14H2,1-4H3",FBRAWBYQGRLCEK-UHFFFAOYSA-N,ClCC(=O)C1(OC(=O)CCC)C2(CC(=O)C3(F)C(C2CC1C)CCC1=CC(=O)C=CC13C)C,C7H6O3,478.98798,4.6790,6,360.63,0,213.07124,0,"[17-(2-chloroacetyl)-9-fluoro-10,13,16-trimethyl-3,11-dioxo-7,8,12,14,15,16-hexahydro-6<I>H</I>-cyclopenta[a]phenanthren-17-yl] butanoate"
"InChI=1S/C28H37ClN4O/c29-24-12-11-23-10-9-22-7-2-3-8-25(22)33(26(23)21-24)18-6-15-31-19-13-28(14-20-31,27(30)34)32-16-4-1-5-17-32/h2-3,7-8,11-12,21H,1,4-6,9-10,13-20H2,(H2,30,34)",QAZKXHSIKKNOHH-UHFFFAOYSA-N,Clc1cc2N(c3c(CCc2cc1)cccc3)CCCN1CCC(N2CCCCC2)(CC1)C(=O)N,C7H8N4O2,481.08398,5.0740,6,432.63,0,101.43808,1,"1-[3-(2-chloro-5,6-dihydrobenzo[b][1]benzazepin-11-yl)propyl]-4-(1-piperidyl)piperidine-4-carboxamide"
"InChI=1S/C27H22Cl2N4/c1-17(2)30-24-16-27-25(15-23(24)31-20-11-7-18(28)8-12-20)32-22-5-3-4-6-26(22)33(27)21-13-9-19(29)10-14-21/h3-17,31H,1-2H3/b30-24+",WDQPAMHFFCXSNU-BGABXYSRSA-N,Clc1ccc(N2C3=C\C(=N/C(C)C)\C(Nc4ccc(Cl)cc4)=CC3=Nc3c2cccc3)cc1,C8H10N4O2,473.40698,7.0180,4,433.50,1,29.495375,1,"(3<I>E</I>)-<I>N</I>,5-bis(4-chlorophenyl)-3-isopropylimino-phenazin-2-amine"
"InChI=1S/C17H20ClNO/c1-19(2)13-12-17(20,14-8-4-3-5-9-14)15-10-6-7-11-16(15)18/h3-11,20H,12-13H2,1-2H3",WRCHFMBCVFFYEQ-UHFFFAOYSA-N,Clc1ccccc1C(O)(CCN(C)C)c1ccccc1,C8H14ClN5,289.806,4.2680,5,265.63,0,70.984688,0,1-(2-chlorophenyl)-3-(dimethylamino)-1-phenyl-propan-1-ol
"InChI=1S/C12H15ClO3/c1-4-15-11(14)12(2,3)16-10-7-5-9(13)6-8-10/h5-8H,4H2,1-3H3",KNHUKKLJHYUCFP-UHFFFAOYSA-N,Clc1ccc(OC(C(OCC)=O)(C)C)cc1,C8H8O3,242.702,3.1847,5,211.63,0,36.788059,1,ethyl 2-(4-chlorophenoxy)-2-methyl-propanoate
"InChI=1S/C10H11ClO3/c1-10(2,9(12)13)14-8-5-3-7(11)4-6-8/h3-6H,1-2H3,(H,12,13)",TXCGAZHTZHNUAI-UHFFFAOYSA-N,Clc1ccc(OC(C(O)=O)(C)C)cc1,C8H9NO2,214.64799,2.8280,3,177.88,0,76.171234,0,2-(4-chlorophenoxy)-2-methyl-propanoic acid
"InChI=1S/C21H37ClN/c1-4-7-8-9-11-18-23(5-2,6-3)19-12-10-13-20-14-16-21(22)17-15-20/h14-17H,4-13,18-19H2,1-3H3/q+1",WPSYTTKBGAZSCX-UHFFFAOYSA-N,Clc1ccc(cc1)CCCC[N+](CCCCCCC)(CC)CC,C9H10O3,338.987,6.6030,13,336.50,1,10.072802,1,4-(4-chlorophenyl)butyl-diethyl-heptyl-ammonium
"InChI=1S/C21H26Cl2O/c1-20(2,3)13-21(4,5)16-7-9-19(24)15(11-16)10-14-6-8-17(22)12-18(14)23/h6-9,11-12,24H,10,13H2,1-5H3",HQVZOORKDNCGCK-UHFFFAOYSA-N,Clc1cc(Cl)ccc1Cc1cc(ccc1O)C(CC(C)(C)C)(C)C,C9H8O2,365.34399,8.0400,5,320.25,1,28.433073,1,"2-[(2,4-dichlorophenyl)methyl]-4-(1,1,3,3-tetramethylbutyl)phenol"
"InChI=1S/C26H28ClNO/c1-3-28(4-2)19-20-29-24-17-15-22(16-18-24)25(21-11-7-5-8-12-21)26(27)23-13-9-6-10-14-23/h5-18H,3-4,19-20H2,1-2H3",GKIRPKYJQBWNGO-UHFFFAOYSA-N,ClC(=C(c1ccc(OCCN(CC)CC)cc1)c1ccccc1)c1ccccc1,C10H11ClO3,405.96899,7.4670,9,399.00,1,23.766876,0,"2-[4-[(<I>Z</I>)-2-chloro-1,2-diphenyl-vinyl]phenoxy]-<I>N</I>,<I>N</I>-diethyl-ethanamine"
"InChI=1S/C19H23ClN2/c1-21(2)12-5-13-22-18-7-4-3-6-15(18)8-9-16-10-11-17(20)14-19(16)22/h3-4,6-7,10-11,14H,5,8-9,12-13H2,1-2H3",GDLIGKIOYRNHDA-UHFFFAOYSA-N,Clc1cc2N(c3c(CCc2cc1)cccc3)CCCN(C)C,C10H11N3O3S,314.85999,4.7330,4,304.75,0,46.328037,1,"3-(2-chloro-5,6-dihydrobenzo[b][1]benzazepin-11-yl)-<I>N</I>,<I>N</I>-dimethyl-propan-1-amine"
"InChI=1S/C15H10ClN3O3/c16-12-4-2-1-3-10(12)15-11-7-9(19(21)22)5-6-13(11)18-14(20)8-17-15/h1-7H,8H2,(H,18,20)",DGBIGWXXNGSACT-UHFFFAOYSA-N,Clc1ccccc1C1=NCC(=O)Nc2c1cc([N+](=O)[O-])cc2,C10H12O3,315.716,2.8450,2,267.88,0,171.02844,0,"5-(2-chlorophenyl)-7-nitro-1,3-dihydro-1,4-benzodiazepin-2-one"
"InChI=1S/C9H9Cl2N3/c10-6-2-1-3-7(11)8(6)14-9-12-4-5-13-9/h1-3H,4-5H2,(H2,12,13,14)",GJSURZIOUXUGAL-UHFFFAOYSA-N,Clc1cccc(Cl)c1NC=1NCCN=1,C12H7Cl3O2,230.09799,2.4670,2,183.00,0,82.574112,1,"<I>N</I>-(2,6-dichlorophenyl)-4,5-dihydro-1<I>H</I>-imidazol-2-amine"
"InChI=1S/C14H20ClN3O3S/c1-9-4-3-5-10(2)18(9)17-14(19)11-6-7-12(15)13(8-11)22(16,20)21/h6-10H,3-5H2,1-2H3,(H,17,19)(H2,16,20,21)",LBXHRAWDUMTPSE-UHFFFAOYSA-N,Clc1ccc(cc1S(=O)(=O)N)C(=O)NN1C(CCCC1C)C,C13H10N2O3S,345.85098,1.7060,4,271.38,0,156.34926,1,"4-chloro-<I>N</I>-(2,6-dimethyl-1-piperidyl)-3-sulfamoyl-benzamide"
"InChI=1S/C20H24ClNO/c21-19-11-9-18(10-12-19)20(17-7-3-1-4-8-17)23-16-15-22-13-5-2-6-14-22/h1,3-4,7-12,20H,2,5-6,13-16H2",FLNXBVJLPJNOSI-UHFFFAOYSA-N,Clc1ccc(cc1)C(OCCN1CCCCC1)c1ccccc1,C13H18O2,329.871,5.3480,6,319.00,1,29.087404,0,1-[2-[(4-chlorophenyl)-phenyl-methoxy]ethyl]piperidine
"InChI=1S/C16H16ClNO2S/c1-20-16(19)15(12-4-2-3-5-13(12)17)18-8-6-14-11(10-18)7-9-21-14/h2-5,7,9,15H,6,8,10H2,1H3",GKTWGGQPFAXNFI-UHFFFAOYSA-N,Clc1ccccc1C(N1CCc2sccc2C1)C(OC)=O,C13H9Cl3N2O,321.828,3.6590,4,277.75,0,65.157097,1,"methyl 2-(2-chlorophenyl)-2-(6,7-dihydro-4<I>H</I>-thieno[3,2-c]pyridin-5-yl)acetate"
"InChI=1S/C22H29ClO6/c23-15-6-5-7-17(12-15)29-14-16(24)10-11-19-18(20(25)13-21(19)26)8-3-1-2-4-9-22(27)28/h1,3,5-7,10-12,16,18-21,24-26H,2,4,8-9,13-14H2,(H,27,28)/p-1",VJGGHXVGBSZVMZ-UHFFFAOYSA-M,Clc1cc(OCC(O)C=CC2C(CC=CCCCC(=O)[O-])C(O)CC2O)ccc1,C14H12O3,423.91299,2.7140,11,378.50,0,178.92896,0,"(<I>E</I>)-7-[2-[(<I>E</I>)-4-(3-chlorophenoxy)-3-hydroxy-but-1-enyl]-3,5-dihydroxy-cyclopentyl]hept-5-enoate"
"InChI=1S/C22H29ClO6/c23-15-6-5-7-17(12-15)29-14-16(24)10-11-19-18(20(25)13-21(19)26)8-3-1-2-4-9-22(27)28/h1,3,5-7,10-12,16,18-21,24-26H,2,4,8-9,13-14H2,(H,27,28)",VJGGHXVGBSZVMZ-UHFFFAOYSA-N,Clc1cc(OCC(O)C=CC2C(CC=CCCCC(O)=O)C(O)CC2O)ccc1,C15H12N2O,424.92099,2.5930,11,378.50,0,229.12856,1,"(<I>E</I>)-7-[2-[(<I>E</I>)-4-(3-chlorophenoxy)-3-hydroxy-but-1-enyl]-3,5-dihydroxy-cyclopentyl]hept-5-enoic acid"
"InChI=1S/C16H11ClN2O3/c17-10-6-7-12-11(8-10)13(9-4-2-1-3-5-9)19-14(16(21)22)15(20)18-12/h1-8,14H,(H,18,20)(H,21,22)",XDDJGVMJFWAHJX-UHFFFAOYSA-N,Clc1cc2c(NC(=O)C(N=C2c2ccccc2)C(O)=O)cc1,C4H4KNO4S,314.728,2.5380,2,272.63,0,162.67781,1,"7-chloro-2-oxo-5-phenyl-1,3-dihydro-1,4-benzodiazepine-3-carboxylic acid"
"InChI=1S/C11H16ClNO/c1-8(2)13-7-11(14)9-5-3-4-6-10(9)12/h3-6,8,11,13-14H,7H2,1-2H3",SSMSBSWKLKKXGG-UHFFFAOYSA-N,Clc1ccccc1C(O)CNC(C)C,C7H6O3,213.70799,2.5070,4,197.50,0,47.133926,0,1-(2-chlorophenyl)-2-(isopropylamino)ethanol
"InChI=1S/C16H15ClN2OS/c1-3-10-8-12-15(11-6-4-5-7-13(11)17)18-9-14(20)19(2)16(12)21-10/h4-8H,3,9H2,1-2H3",CHBRHODLKOZEPZ-UHFFFAOYSA-N,Clc1ccccc1C1=NCC(=O)N(c2sc(cc12)CC)C,C7H8N4O2,318.828,3.6220,2,279.88,0,81.914185,1,"5-(2-chlorophenyl)-7-ethyl-1-methyl-3<I>H</I>-thieno[2,3-e][1,4]diazepin-2-one"
"InChI=1S/C22H17ClN2/c23-21-14-8-7-13-20(21)22(25-16-15-24-17-25,18-9-3-1-4-10-18)19-11-5-2-6-12-19/h1-17H",VNFPBHJOKIVQEB-UHFFFAOYSA-N,Clc1ccccc1C(n1ccnc1)(c1ccccc1)c1ccccc1,C8H10N4O2,344.845,6.1730,4,293.63,1,29.435547,0,1-[(2-chlorophenyl)-diphenyl-methyl]imidazole
"InChI=1S/C19H18ClN3O5S/c1-8-11(12(22-28-8)9-6-4-5-7-10(9)20)15(24)21-13-16(25)23-14(18(26)27)19(2,3)29-17(13)23/h4-7,13-14,17H,1-3H3,(H,21,24)(H,26,27)/p-1",LQOLIRLGBULYKD-UHFFFAOYSA-M,Clc1ccccc1-c1noc(C)c1C(=O)NC1C2SC(C)(C)C(N2C1=O)C(=O)[O-],C8H14ClN5,434.88,2.6710,5,347.00,0,197.01657,1,"6-[[3-(2-chlorophenyl)-5-methyl-isoxazole-4-carbonyl]amino]-3,3-dimethyl-7-oxo-4-thia-1-azabicyclo[3.2.0]heptane-2-carboxylate"
"InChI=1S/C19H18ClN3O5S/c1-8-11(12(22-28-8)9-6-4-5-7-10(9)20)15(24)21-13-16(25)23-14(18(26)27)19(2,3)29-17(13)23/h4-7,13-14,17H,1-3H3,(H,21,24)(H,26,27)",LQOLIRLGBULYKD-UHFFFAOYSA-N,Clc1ccccc1-c1noc(C)c1C(=O)NC1C2SC(C)(C)C(N2C1=O)C(O)=O,C8H8O3,435.888,2.5500,5,347.00,0,189.15054,1,"6-[[3-(2-chlorophenyl)-5-methyl-isoxazole-4-carbonyl]amino]-3,3-dimethyl-7-oxo-4-thia-1-azabicyclo[3.2.0]heptane-2-carboxylic acid"
"InChI=1S/C12H12BClN2O4/c1-7-10(12(17)15-6-13(18)19)11(16-20-7)8-4-2-3-5-9(8)14/h2-5,18-19H,6H2,1H3,(H,15,17)",LSXNXXCBOPILJR-UHFFFAOYSA-N,Clc1ccccc1-c1noc(C)c1C(=O)NCB(O)O,C8H9NO2,294.50198,1.3050,5,250.75,0,165.75529,0,[[3-(2-chlorophenyl)-5-methyl-isoxazole-4-carbonyl]amino]methylboronic acid
"InChI=1S/C17H14Cl2N2O2/c18-11-5-6-15-13(9-11)17(12-3-1-2-4-14(12)19)21(7-8-23-17)10-16(22)20-15/h1-6,9H,7-8,10H2,(H,20,22)",ZIXNZOBDFKSQTC-UHFFFAOYSA-N,Clc1ccccc1C12OCCN1CC(=O)Nc1c2cc(Cl)cc1,C9H10O3,349.21698,4.1400,1,260.88,0,87.093185,1,"10-chloro-11<I>b</I>-(2-chlorophenyl)-2,3,5,7-tetrahydrooxazolo[3,2-d][1,4]benzodiazepin-6-one"
"InChI=1S/C9H6ClNO/c10-7-3-4-8(12)9-6(7)2-1-5-11-9/h1-5,12H",CTQMJYWDVABFRZ-UHFFFAOYSA-N,Clc1c2c(nccc2)c(O)cc1,C9H8O2,179.606,2.3880,0,157.38,0,58.251221,0,5-chloroquinolin-8-ol
"InChI=1S/C18H19ClN4/c1-22-8-10-23(11-9-22)18-14-4-2-3-5-15(14)20-16-7-6-13(19)12-17(16)21-18/h2-7,12,21H,8-11H2,1H3",ZUXABONWMNSFBN-UHFFFAOYSA-N,Clc1cc2NC(N3CCN(CC3)C)=C3C(=Nc2cc1)C=CC=C3,C10H11ClO3,326.83099,2.8340,1,304.38,0,70.682266,1,"3-chloro-6-(4-methylpiperazin-1-yl)-5<I>H</I>-benzo[b][1,4]benzodiazepine"
"InChI=1S/C18H19ClN4O/c1-23(24)10-8-22(9-11-23)18-14-4-2-3-5-15(14)20-16-7-6-13(19)12-17(16)21-18/h2-7,12,21H,8-11H2,1H3",WYRDWWAASBTJLM-UHFFFAOYSA-N,Clc1cc2NC(N3CC[N+]([O-])(CC3)C)=C3C(=Nc2cc1)C=CC=C3,C10H11N3O3S,342.82999,2.6860,1,303.63,0,83.208534,1,"3-chloro-6-(4-methyl-4-oxido-piperazin-4-ium-1-yl)-5<I>H</I>-benzo[b][1,4]benzodiazepine"
"InChI=1S/C17H17ClN4/c18-12-5-6-15-16(11-12)21-17(22-9-7-19-8-10-22)13-3-1-2-4-14(13)20-15/h1-6,11,19,21H,7-10H2",HESZUPIXRNZIOI-UHFFFAOYSA-N,Clc1cc2NC(N3CCNCC3)=C3C(=Nc2cc1)C=CC=C3,C10H12O3,312.80399,2.5660,1,285.63,0,79.318726,0,"3-chloro-6-piperazin-1-yl-5<I>H</I>-benzo[b][1,4]benzodiazepine"
"InChI=1S/C9H4N4O4.2Na/c10-3-4-1-5-6(2-7(4)13(16)17)12-9(15)8(14)11-5;;/h1-2H,(H,11,14)(H,12,15);;/q;2*+1/p-2",YCXDDPGRZKUGDG-UHFFFAOYSA-L,[Na+].[Na+].O=[N+]([O-])c1cc2nc([O-])c([O-])nc2cc1C#N,C12H7Cl3O2,276.11899,1.3845,2,280.13,0,511.24496,1,"disodium;6-cyano-7-nitro-quinoxaline-2,3-diolate"
"InChI=1S/C33H48N9O17P3S/c1-33(2,28(46)31(47)37-10-8-23(43)36-11-12-63-15-24(44)35-9-7-19-13-38-21-6-4-3-5-20(19)21)16-56-62(53,54)59-61(51,52)55-14-22-27(58-60(48,49)50)26(45)32(57-22)42-18-41-25-29(3 4)39-17-40-30(25)42/h3-6,13,17-18,22,26-28,32,38,45-46H",ZRDQFWRSRPZOSQ-UHFFFAOYSA-N,S(CC(=O)NCCc1c2c([nH]c1)cccc2)CCNC(=O)CCNC(=O)C(O)C(COP(OP(OCC1OC(n2c3ncnc(N)c3nc2)C(O)C1OP(O)(O)=O)(O)=O)(O)=O)(C)C,C13H10N2O3S,967.78101,-3.8059,27,717.88,3,597.28729,0,"[[5-(6-aminopurin-9-yl)-4-hydroxy-3-phosphonooxy-tetrahydrofuran-2-yl]methoxy-hydroxy-phosphoryl] [3-hydroxy-4-[[3-[2-[2-[2-(1H-indol-3-yl)ethylamino]-2-oxo-ethyl]sulfanylethylamino]-3-oxo-propyl]amin o]-2,2-dimethyl-4-oxo-butyl] hydrogen phosphate"
"InChI=1S/C62H88N13O14P.Co/c1-29-20-39-40(21-30(29)2)75(28-70-39)57-52(84)53(41(27-76)87-57)89-90(85,86)88-31(3)26-69-49(83)18-19-59(8)37(22-46(66)80)56-62(11)61(10,25-48(68)82)36(14-17-45(65)79)51(74- 62)33(5)55-60(9,24-47(67)81)34(12-15-43(63)77)38(71-55)",SJBNFITWNDPBKE-UHFFFAOYSA-N,[Co].P(OC1C(O)C(OC1CO)n1c2cc(C)c(cc2nc1)C)(OC(CNC(=O)CCC1(C=2N=C(C3(N=C(C(CCC(=O)N)C3(CC(=O)N)C)C(=C3N=C(C=C4N=C(C(CCC(=O)N)C4(C)C)C=2C)C(CCC(=O)N)C3(CC(=O)N)C)C)C)C1CC(=O)N)C)C)(O)=O,C13H18O2,1329.37,-3.8790,27,969.50,3,687.70605,1,"cobalt;[5-(5,6-dimethylbenzimidazol-1-yl)-4-hydroxy-2-(hydroxymethyl)tetrahydrofuran-3-yl] [1-methyl-2-[3-[(4<I>E</I>,9<I>E</I>,14<I>Z</I>)-2,13,18-tris(2-amino-2-oxo-ethyl)-7,12,17-tris(3-amino-3-oxo -propyl)-3,5,8,8,13,15,18,19-octamethyl-2,7,12,17-tetrahydrocorrin-3-yl]propanoylamino]ethyl] hydrogen phosphate"
"InChI=1S/C62H88N13O14P/c1-29-20-39-40(21-30(29)2)75(28-70-39)57-52(84)53(41(27-76)87-57)89-90(85,86)88-31(3)26-69-49(83)18-19-59(8)37(22-46(66)80)56-62(11)61(10,25-48(68)82)36(14-17-45(65)79)51(74-62) 33(5)55-60(9,24-47(67)81)34(12-15-43(63)77)38(71-55)23-",UMMYRKDZQINBHZ-UHFFFAOYSA-N,P(OC1C(O)C(OC1CO)n1c2cc(C)c(cc2nc1)C)(OC(CNC(=O)CCC1(C=2N=C(C3(N=C(C(CCC(=O)N)C3(CC(=O)N)C)C(=C3N=C(C=C4N=C(C(CCC(=O)N)C4(C)C)C=2C)C(CCC(=O)N)C3(CC(=O)N)C)C)C)C1CC(=O)N)C)C)(O)=O,C13H9Cl3N2O,1270.437,-3.8790,27,953.75,3,695.12183,1,"[5-(5,6-dimethylbenzimidazol-1-yl)-4-hydroxy-2-(hydroxymethyl)tetrahydrofuran-3-yl] [1-methyl-2-[3-[(4<I>E</I>,9<I>E</I>,14<I>Z</I>)-2,13,18-tris(2-amino-2-oxo-ethyl)-7,12,17-tris(3-amino-3-oxo-propyl )-3,5,8,8,13,15,18,19-octamethyl-2,7,12,17-tetrahydrocorrin-3-yl]propanoylamino]ethyl] hydrogen phosphate"
"InChI=1S/C18H23NO4/c1-3-22-18(21)16-14-10-9-13(19(14)2)11-15(16)23-17(20)12-7-5-4-6-8-12/h4-8,13-16H,3,9-11H2,1-2H3",NMPOSNRHZIWLLL-UHFFFAOYSA-N,O(C(=O)c1ccccc1)C1CC2N(C(CC2)C1C(OCC)=O)C,C14H12O3,317.38498,2.7640,6,263.63,0,60.329037,0,ethyl 3-benzoyloxy-8-methyl-8-azabicyclo[3.2.1]octane-4-carboxylate
"InChI=1S/C17H21NO4/c1-18-12-8-9-13(18)15(17(20)21-2)14(10-12)22-16(19)11-6-4-3-5-7-11/h3-7,12-15H,8-10H2,1-2H3",ZPUCINDJVBIVPJ-UHFFFAOYSA-N,O(C(=O)c1ccccc1)C1CC2N(C(CC2)C1C(OC)=O)C,C15H12N2O,303.358,2.4230,5,252.25,0,131.68301,1,methyl 3-benzoyloxy-8-methyl-8-azabicyclo[3.2.1]octane-4-carboxylate
"InChI=1S/C32H30N2O4/c1-17(2)5-7-19-9-11-25-21(13-19)23(15-33-25)27-29(35)31(37)28(32(38)30(27)36)24-16-34-26-12-10-20(14-22(24)26)8-6-18(3)4/h5-6,9-16,33-35,38H,7-8H2,1-4H3",ZXRULNXZJSCTQQ-UHFFFAOYSA-N,OC1=C(C(=O)C(O)=C(C1=O)c1c2cc(ccc2[nH]c1)CC=C(C)C)c1c2cc(ccc2[nH]c1)CC=C(C)C,C4H4KNO4S,506.60199,6.0440,6,486.38,2,256.41803,0,"2,5-dihydroxy-3,6-bis[5-(3-methylbut-2-enyl)-1<I>H</I>-indol-3-yl]-1,4-benzoquinone"
"InChI=1S/C18H21NO3/c1-19-8-7-18-11-4-5-13(20)17(18)22-16-14(21-2)6-3-10(15(16)18)9-12(11)19/h3-6,11-13,17,20H,7-9H2,1-2H3",OROGSEYTTFOCAN-UHFFFAOYSA-N,O1C2C34C(C(N(CC3)C)Cc3c4c1c(OC)cc3)C=CC2O,C7H6O3,299.37,1.2010,1,247.13,0,144.12706,1,"9-methoxy-3-methyl-2,4,4<I>a</I>,7,7<I>a</I>,13-hexahydro-1<I>H</I>-4,12-methanobenzofuro[3,2-e]isoquinoline-7-ol"
"InChI=1S/C26H21N3O4/c30-20-10-6-18(7-11-20)15-26(33)25(32)29-16-23(19-8-12-21(31)13-9-19)27-22(24(29)28-26)14-17-4-2-1-3-5-17/h1-13,16,30-31,33H,14-15H2",ULLMMKZQNNBLRN-UHFFFAOYSA-N,OC1(N=C2N(C=C(N=C2Cc2ccccc2)c2ccc(O)cc2)C1=O)Cc1ccc(O)cc1,C7H8N4O2,439.47098,3.7900,5,406.00,0,182.20596,1,"8-benzyl-2-hydroxy-6-(4-hydroxyphenyl)-2-[(4-hydroxyphenyl)methyl]imidazo[1,2-a]pyrazin-3-one"
"InChI=1S/C26H21N3O3/c30-20-10-6-18(7-11-20)15-23-26(32)29-16-24(19-8-12-21(31)13-9-19)27-22(25(29)28-23)14-17-4-2-1-3-5-17/h1-13,16,27,30-31H,14-15H2",YHIPILPTUVMWQT-UHFFFAOYSA-N,Oc1ccc(cc1)C=1NC(=C2N(C=1)C(=O)C(=N2)Cc1ccc(O)cc1)Cc1ccccc1,C8H10N4O2,423.47198,4.5480,5,408.25,0,166.70593,0,"8-benzyl-6-(4-hydroxyphenyl)-2-[(4-hydroxyphenyl)methyl]-7<I>H</I>-imidazo[1,2-a]pyrazin-3-one"
"InChI=1S/C62H88N13O14P.CN.Co/c1-29-20-39-40(21-30(29)2)75(28-70-39)57-52(84)53(41(27-76)87-57)89-90(85,86)88-31(3)26-69-49(83)18-19-59(8)37(22-46(66)80)56-62(11)61(10,25-48(68)82)36(14-17-45(65)79)51( 74-62)33(5)55-60(9,24-47(67)81)34(12-15-43(63)77)38(71-",FSTLTSJUPVXKBK-UHFFFAOYSA-N,[Co].P(OC1C(O)C(OC1CO)n1c2cc(C)c(cc2nc1)C)(OC(CNC(=O)CCC1(/C=2/N=C(C3(N=C(\C(=C/4\N=C(\C=C\5/N=C(\C=2\C)C(CCC(=O)N)C/5(C)C)C(CCC(=O)N)C\4(CC(=O)N)C)\C)C(CCC(=O)N)C3(CC(=O)N)C)C)C1CC(=O)N)C)C)(O)=O.N#[C-],C8H14ClN5,1355.3879,-4.0470,27,1009.50,3,630.21686,1,"cobalt;[5-(5,6-dimethylbenzimidazol-1-yl)-4-hydroxy-2-(hydroxymethyl)tetrahydrofuran-3-yl] [1-methyl-2-[3-[(4<I>Z</I>,9<I>Z</I>,14<I>Z</I>)-2,13,18-tris(2-amino-2-oxo-ethyl)-7,12,17-tris(3-amino-3-oxo -propyl)-3,5,8,8,13,15,18,19-octamethyl-2,7,12,17-tetrahydrocorrin-3-yl]propanoylamino]ethyl] hydrogen phosphate;cyanide"
"InChI=1S/C21H25NO5/c1-22-15-8-6-12-10-18(25-3)20(26-4)21(27-5)19(12)13-7-9-17(24-2)16(23)11-14(13)15/h7,9-11,15,22H,6,8H2,1-5H3",NNJPGOLRFBJNIW-UHFFFAOYSA-N,O(C)C1=CC=C2C(=CC1=O)C(NC)CCc1c2c(OC)c(OC)c(OC)c1,C8H8O3,371.43298,2.5645,5,347.25,0,207.30598,0,"1,2,3,10-tetramethoxy-7-(methylamino)-6,7-dihydro-5<I>H</I>-benzo[a]heptalen-9-one"
"InChI=1S/C22H25NO6/c1-12(24)23-16-8-6-13-10-19(27-3)21(28-4)22(29-5)20(13)14-7-9-18(26-2)17(25)11-15(14)16/h7,9-11,16H,6,8H2,1-5H3,(H,23,24)",IAKHMKGGTNLKSZ-UHFFFAOYSA-N,O(C)C1=CC=C2C(=CC1=O)C(NC(=O)C)CCc1c2c(OC)c(OC)c(OC)c1,C8H9NO2,399.44299,2.2085,6,365.00,0,198.39436,1,"<I>N</I>-(1,2,3,10-tetramethoxy-9-oxo-6,7-dihydro-5<I>H</I>-benzo[a]heptalen-7-yl)acetamide"
"InChI=1S/C27H43NO8/c1-10-24(5)15-18(31)27(33)25(6)17(30)11-13-23(3,4)21(25)20(35-19(32)12-14-28(8)9)22(34-16(2)29)26(27,7)36-24/h10,17,20-22,30,33H,1,11-15H2,2-9H3",RSOZZQTUMVBTMR-UHFFFAOYSA-N,O1C2(C)C(O)(C3(C(C(OC(=O)CCN(C)C)C2OC(=O)C)C(CCC3O)(C)C)C)C(=O)CC1(C=C)C,C9H10O3,509.63998,2.1117,8,392.38,1,176.34036,1,"(5-acetoxy-10,10<I>b</I>-dihydroxy-3,4<I>a</I>,7,7,10<I>a</I>-pentamethyl-1-oxo-3-vinyl-5,6,6<I>a</I>,8,9,10-hexahydro-2<I>H</I>-benzo[f]chromen-6-yl) 3-(dimethylamino)propanoate"
"InChI=1S/C57H108N16O28S5/c1-9-33(5)44-55(84)68-38(16-22-59-28-103(90,91)92)48(77)66-41(19-25-62-31-106(99,100)101)53(82)72-46(35(7)74)54(83)63-26-20-42(50(79)65-40(18-24-61-30-105(96,97)98)52(81)70-45 (34(6)10-2)56(85)71-44)67-49(78)39(17-23-60-29-104(93,9",JGZYUDARLHNRKM-UHFFFAOYSA-I,S(=O)(=O)([O-])CNCCC1NC(=O)C(NC(=O)C(NC(=O)C(NC(=O)C(NC(=O)C(NC(=O)C(NC(=O)C(NC(=O)C(NC(=O)CCCCC(C)C)CCNCS(=O)(=O)[O-])C(O)C)CCNCS(=O)(=O)[O-])CCNC(=O)C(NC1=O)C(O)C)CCNCS(=O)(=O)[O-])C(CC)C)C(CC)C)CCNCS(=O)(=O)[O-],C9H8O2,1620.865,-7.3900,47,1191.00,3,749.16412,0,"[2-[17-(1-hydroxyethyl)-22-[[2-[[3-hydroxy-2-[[2-(6-methylheptanoylamino)-4-(sulfonatomethylamino)butanoyl]amino]butanoyl]amino]-4-(sulfonatomethylamino)butanoyl]amino]-3,6,9,12,15,18,23-heptaoxo-5,8- disec-butyl-11,14-bis[2-(sulfonatomethylamino)ethyl]-1,4,7,10,13,16,19-heptazacyclotricos-2-yl]ethylamino]methanesulfonate"
"InChI=1S/C57H108N16O28S5/c1-9-33(5)44-55(84)68-38(16-22-59-28-103(90,91)92)48(77)66-41(19-25-62-31-106(99,100)101)53(82)72-46(35(7)74)54(83)63-26-20-42(50(79)65-40(18-24-61-30-105(96,97)98)52(81)70-45 (34(6)10-2)56(85)71-44)67-49(78)39(17-23-60-29-104(93,9",JGZYUDARLHNRKM-UHFFFAOYSA-N,S(O)(=O)(=O)CNCCC1NC(=O)C(NC(=O)C(NC(=O)C(NC(=O)C(NC(=O)C(NC(=O)C(NC(=O)C(NC(=O)C(NC(=O)CCCCC(C)C)CCNCS(O)(=O)=O)C(O)C)CCNCS(O)(=O)=O)CCNC(=O)C(NC1=O)C(O)C)CCNCS(O)(=O)=O)C(CC)C)C(CC)C)CCNCS(O)(=O)=O,C10H11ClO3,1625.905,-7.1400,47,1191.00,3,665.5376,1,"[2-[17-(1-hydroxyethyl)-22-[[2-[[3-hydroxy-2-[[2-(6-methylheptanoylamino)-4-(sulfomethylamino)butanoyl]amino]butanoyl]amino]-4-(sulfomethylamino)butanoyl]amino]-3,6,9,12,15,18,23-heptaoxo-5,8-disec-bu tyl-11,14-bis[2-(sulfomethylamino)ethyl]-1,4,7,10,13,16,19-heptazacyclotricos-2-yl]ethylamino]methanesulfonic acid"
"InChI=1S/C35H49N5O7/c1-5-22(3)30-35(46)40-19-13-12-18-28(40)33(44)36-26(16-9-7-8-14-23(41)6-2)32(43)38-31(34(45)37-30)25-20-39(21-29(42)47-4)27-17-11-10-15-24(25)27/h10-11,15,17,20,22,26,28,30-31H,5-9 ,12-14,16,18-19,21H2,1-4H3,(H,36,44)(H,37,45)(H,38,43)",YNHSVXDOGNWCLT-UHFFFAOYSA-N,O=C1NC(C(CC)C)C(=O)N2C(CCCC2)C(=O)NC(CCCCCC(=O)CC)C(=O)NC1c1c2c(n(c1)CC(OC)=O)cccc2,C10H11N3O3S,651.80499,4.1810,13,535.63,2,205.11157,0,"methyl 2-[3-[2,5,8,11-tetraoxo-9-(6-oxooctyl)-3-sec-butyl-1,4,7,10-tetrazabicyclo[10.4.0]hexadecan-6-yl]indol-1-yl]acetate"
"InChI=1S/C34H49N5O5/c1-5-22(4)29-34(44)39-20-14-13-19-28(39)32(42)35-26(17-10-8-9-15-23(40)6-2)31(41)37-30(33(43)36-29)25-21-38(7-3)27-18-12-11-16-24(25)27/h11-12,16,18,21-22,26,28-30H,5-10,13-15,17,1 9-20H2,1-4H3,(H,35,42)(H,36,43)(H,37,41)",WMOCHXMIEIAMNG-UHFFFAOYSA-N,O=C1NC(C(CC)C)C(=O)N2C(CCCC2)C(=O)NC(CCCCCC(=O)CC)C(=O)NC1c1c2c(n(c1)CC)cccc2,C10H12O3,607.79596,4.7530,11,520.75,1,146.68176,1,"6-(1-ethylindol-3-yl)-9-(6-oxooctyl)-3-sec-butyl-1,4,7,10-tetrazabicyclo[10.4.0]hexadecane-2,5,8,11-tetrone"
"InChI=1S/C34H47N5O7/c1-5-21(3)28-34(45)38-19-13-12-18-27(38)32(43)35-25(16-9-7-8-14-22(40)6-2)31(42)37-29(33(44)36-28)24-20-39(46-4)26-17-11-10-15-23(26)30(24)41/h10-11,15,17,20-21,25,27-29H,5-9,12-14 ,16,18-19H2,1-4H3,(H,35,43)(H,36,44)(H,37,42)",IEVZGTIIJVLPRE-UHFFFAOYSA-N,O=C1c2c(N(OC)C=C1C1NC(=O)C(NC(=O)C3N(CCCC3)C(=O)C(NC1=O)C(CC)C)CCCCCC(=O)CC)cccc2,C12H7Cl3O2,637.77802,3.2020,11,533.13,2,180.68765,1,"6-(1-methoxy-4-oxo-3-quinolyl)-9-(6-oxooctyl)-3-sec-butyl-1,4,7,10-tetrazabicyclo[10.4.0]hexadecane-2,5,8,11-tetrone"