InChI,Key,smiles,Formula,Weight,logP(o/w),b_rotN,vol,lip_violation,ASA_P,Natural,ChemicalName
"InChI=1S/C8H6ClNO5S/c9-7-4-1-2-10(16(13,14)15)5(4)3-6(11)8(7)12/h1-3,11-12H,(H,13,14,15)/p-1",QNYOMDNEXUQZEF-UHFFFAOYSA-M,Clc1c2c(n(S(=O)(=O)[O-])cc2)cc(O)c1O,C15H12N2O,262.64899,1.0380,1,182.13,0,210.12466,1,"4-chloro-5,6-dihydroxy-indole-1-sulfonate"
"InChI=1S/C8H6ClNO5S/c9-7-4-1-2-10(16(13,14)15)5(4)3-6(11)8(7)12/h1-3,11-12H,(H,13,14,15)",QNYOMDNEXUQZEF-UHFFFAOYSA-N,Clc1c2c(n(S(O)(=O)=O)cc2)cc(O)c1O,C4H4KNO4S,263.65698,1.0880,1,182.13,0,218.21803,0,"4-chloro-5,6-dihydroxy-indole-1-sulfonic acid"
"InChI=1S/C19H24O2/c1-18-9-7-13(20)11-12(18)3-4-14-15-5-6-17(21)19(15,2)10-8-16(14)18/h7,9,11,14-16H,3-6,8,10H2,1-2H3",LUJVUUWNAPIQQI-UHFFFAOYSA-N,O=C1CCC2C3C(CCC12C)C1(C(=CC(=O)C=C1)CC3)C,C7H6O3,284.39899,3.2550,0,249.25,0,88.988571,1,"10,13-dimethyl-7,8,9,11,12,14,15,16-octahydro-6<I>H</I>-cyclopenta[a]phenanthrene-3,17-dione"
"InChI=1S/C19H26O2/c1-18-9-7-13(20)11-12(18)3-4-14-15-5-6-17(21)19(15,2)10-8-16(14)18/h11,14-16H,3-10H2,1-2H3",AEMFNILZOJDQLW-UHFFFAOYSA-N,O=C1CCC2C3C(CCC12C)C1(C(=CC(=O)CC1)CC3)C,C7H8N4O2,286.41498,2.4910,0,248.00,0,79.111176,0,"10,13-dimethyl-2,6,7,8,9,11,12,14,15,16-decahydro-1<I>H</I>-cyclopenta[a]phenanthrene-3,17-dione"
"InChI=1S/C10H8OS3/c1-11-8-4-2-7(3-5-8)9-6-10(12)14-13-9/h2-6H,1H3",KYLIZBIRMBGUOP-UHFFFAOYSA-N,S1SC(=S)C=C1c1ccc(OC)cc1,C8H10N4O2,240.371,3.6560,2,199.25,0,121.29055,1,5-(4-methoxyphenyl)dithiole-3-thione
"InChI=1S/C12H13NO3/c1-16-10-6-4-9(5-7-10)12(15)13-8-2-3-11(13)14/h4-7H,2-3,8H2,1H3",ZXNRTKGTQJPIJK-UHFFFAOYSA-N,O(C)c1ccc(cc1)C(=O)N1CCCC1=O,C8H8O3,219.23999,1.3870,3,207.75,0,112.56268,0,1-(4-methoxybenzoyl)pyrrolidin-2-one
"InChI=1S/C16H12O3/c1-19-11-8-6-10(7-9-11)14-15(17)12-4-2-3-5-13(12)16(14)18/h2-9,14H,1H3",XRCFXMGQEVUZFC-UHFFFAOYSA-N,O(C)c1ccc(cc1)C1C(=O)c2c(cccc2)C1=O,C8H9NO2,252.269,2.6950,2,246.13,0,111.8102,1,"2-(4-methoxyphenyl)indane-1,3-dione"
"InChI=1S/C17H23NO4/c1-18-12-7-13(9-15(18)16(20)8-12)22-17(21)14(10-19)11-5-3-2-4-6-11/h2-6,12-16,19-20H,7-10H2,1H3",WTQYWNWRJNXDEG-UHFFFAOYSA-N,O(C(=O)C(CO)c1ccccc1)C1CC2N(C(CC2O)C1)C,C9H10O3,305.37399,1.3870,5,261.38,0,129.67935,0,(6-hydroxy-8-methyl-8-azabicyclo[3.2.1]octan-3-yl) 3-hydroxy-2-phenyl-propanoate
"InChI=1S/C14H19NO4/c1-9(16)19-14-12(15-8-13(14)17)7-10-3-5-11(18-2)6-4-10/h3-6,12-15,17H,7-8H2,1-2H3",YKJYKKNCCRKFSL-UHFFFAOYSA-N,O(C(=O)C)C1C(NCC1O)Cc1ccc(OC)cc1,C9H8O2,265.30899,0.9430,5,241.50,0,161.57304,1,[4-hydroxy-2-[(4-methoxyphenyl)methyl]pyrrolidin-3-yl] acetate
"InChI=1S/C17H19N3/c1-3-7-15(8-4-1)13-20(14-17-18-11-12-19-17)16-9-5-2-6-10-16/h1-10H,11-14H2,(H,18,19)",REYFJDPCWQRWAA-UHFFFAOYSA-N,N1CCN=C1CN(Cc1ccccc1)c1ccccc1,C10H11ClO3,265.35999,2.7680,5,267.63,0,65.283699,1,"<I>N</I>-benzyl-<I>N</I>-(4,5-dihydro-1<I>H</I>-imidazol-2-ylmethyl)aniline"
"InChI=1S/C15H10O2/c16-15(17)14-12-7-3-1-5-10(12)9-11-6-2-4-8-13(11)14/h1-9H,(H,16,17)",XGWFJBFNAQHLEF-UHFFFAOYSA-N,OC(=O)c1c2c(cc3c1cccc3)cccc2,C10H11N3O3S,222.243,4.0600,1,217.00,0,81.276398,0,anthracene-9-carboxylic acid
"InChI=1S/C14H10O3/c15-10-5-1-3-8-7-9-4-2-6-11(16)13(9)14(17)12(8)10/h1-6,15-16H,7H2",NUZWLKWWNNJHPT-UHFFFAOYSA-N,Oc1c2c(Cc3c(C2=O)c(O)ccc3)ccc1,C10H12O3,226.23099,2.8770,0,208.50,0,95.836487,1,"1,8-dihydroxy-10<I>H</I>-anthracen-9-one"
"InChI=1S/C22H22O7/c1-24-17-6-12(7-18(25-2)21(17)26-3)19-14-8-16-15(28-10-29-16)5-11(14)4-13-9-27-22(23)20(13)19/h5-8,13,19-20H,4,9-10H2,1-3H3",ZGLXUQQMLLIKAN-UHFFFAOYSA-N,O1CC2C(C(c3c(C2)cc2OCOc2c3)c2cc(OC)c(OC)c(OC)c2)C1=O,C12H7Cl3O2,398.41098,2.5495,4,353.75,0,218.00703,0,"5-(3,4,5-trimethoxyphenyl)-5<I>a</I>,8,8<I>a</I>,9-tetrahydro-5<I>H</I>-isobenzofuro[5,6-f][1,3]benzodioxol-6-one"
"InChI=1S/C27H38N2O9/c1-6-7-8-10-19-24(38-21(31)13-15(2)3)17(5)37-27(35)22(16(4)36-26(19)34)29-25(33)18-11-9-12-20(23(18)32)28-14-30/h9,11-12,14-17,19,22,24,32H,6-8,10,13H2,1-5H3,(H,28,30)(H,29,33)",ZVYMCLIDNNTNCL-UHFFFAOYSA-N,O1C(C)C(NC(=O)c2cccc(NC=O)c2O)C(OC(C)C(OC(=O)CC(C)C)C(CCCCC)C1=O)=O,C13H10N2O3S,534.60602,3.9090,13,465.25,2,214.21536,1,"[3-[(3-formamido-2-hydroxy-benzoyl)amino]-2,6-dimethyl-4,9-dioxo-8-pentyl-1,5-dioxonan-7-yl] 3-methylbutanoate"
"InChI=1S/C27H44N10O6/c1-16(2)21(23(40)34-18(15-38)10-6-12-32-25(28)29)37-22(39)19(11-7-13-33-26(30)31)35-27(43)36-20(24(41)42)14-17-8-4-3-5-9-17/h3-5,8-9,15-16,18-21H,6-7,10-14H2,1-2H3,(H,34,40)(H,37, 39)(H,41,42)(H4,28,29,32)(H4,30,31,33)(H2,35,36,43)",SDNYTAYICBFYFH-UHFFFAOYSA-N,OC(=O)C(NC(=O)NC(CCCN=C(N)N)C(=O)NC(C(C)C)C(=O)NC(CCCN=C(N)N)C=O)Cc1ccccc1,C13H18O2,604.71301,0.0940,23,525.38,3,533.76654,1,2-[[1-[[1-[(1-formyl-4-guanidino-butyl)carbamoyl]-2-methyl-propyl]carbamoyl]-4-guanidino-butyl]carbamoylamino]-3-phenyl-propanoic acid
"InChI=1S/C11H12N2O/c1-9-8-11(14)13(12(9)2)10-6-4-3-5-7-10/h3-8H,1-2H3",VEQOALNAAJBPNY-UHFFFAOYSA-N,O=C1N(N(C)C(=C1)C)c1ccccc1,C13H9Cl3N2O,188.23,1.3510,1,190.00,0,62.607075,0,"1,5-dimethyl-2-phenyl-pyrazol-3-one"
"InChI=1S/C4H10NO5P/c5-3(4(6)7)1-2-11(8,9)10/h3H,1-2,5H2,(H,6,7)(H2,8,9,10)",DDOQBQRIEWHWBT-UHFFFAOYSA-N,P(O)(O)(=O)CCC(N)C(O)=O,C14H12O3,183.09999,-4.6797,4,122.13,0,255.09,1,2-amino-4-phosphono-butanoic acid
"InChI=1S/C30H41N3O10P2/c1-18(34)32-25(13-20-11-12-27(44(37,38)39)28(14-20)45(40,41)42)30(36)33-24-10-6-5-9-21-15-26(23(29(31)35)16-22(21)24)43-17-19-7-3-2-4-8-19/h11-12,14-16,19,24-25H,2-10,13,17H2,1H 3,(H2,31,35)(H,32,34)(H,33,36)(H2,37,38,39)(H2,40,41,42",SPSGYTWOIGAABK-UHFFFAOYSA-N,P(O)(O)(=O)c1cc(ccc1P(O)(O)=O)CC(NC(=O)C)C(=O)NC1CCCCc2c1cc(C(=O)N)c(OCC1CCCCC1)c2,C15H12N2O,665.617,1.5890,13,527.63,3,361.55197,0,"[4-[2-acetamido-3-[[3-carbamoyl-2-(cyclohexylmethoxy)-6,7,8,9-tetrahydro-5<I>H</I>-benzo[7]annulen-5-yl]amino]-3-oxo-propyl]-2-phosphono-phenyl]phosphonic acid"
"InChI=1S/C5H10N2S2/c6-9-5(8)7-3-1-2-4-7/h1-4,6H2",ZXRVVSPLKXIMMD-UHFFFAOYSA-N,S(N)C(=S)N1CCCC1,C4H4KNO4S,162.28101,0.6840,2,130.50,0,146.25815,1,amino pyrrolidine-1-carbodithioate
"InChI=1S/C15H18O2S/c1-3-4-5-6-9-12-18-15-11-8-7-10-14(15)17-13(2)16/h7-8,10-11H,3-5,12H2,1-2H3",GXMBHQRROXQUJS-UHFFFAOYSA-N,S(CC#CCCCC)c1ccccc1OC(=O)C,C7H8N4O2,262.37299,4.6600,8,258.13,0,135.00786,0,(2-hept-2-ynylsulfanylphenyl) acetate
"InChI=1S/C33H47N5O6/c1-5-21(3)28-33(43)37-19-13-12-18-27(37)31(41)34-25(16-9-7-8-14-22(39)6-2)30(40)36-29(32(42)35-28)24-20-38(44-4)26-17-11-10-15-23(24)26/h10-11,15,17,20-21,25,27-29H,5-9,12-14,16,18 -19H2,1-4H3,(H,34,41)(H,35,42)(H,36,40)",XWKJTSOFFKCRMH-UHFFFAOYSA-N,O=C1NC(C(CC)C)C(=O)N2C(CCCC2)C(=O)NC(CCCCCC(=O)CC)C(=O)NC1c1c2c(n(OC)c1)cccc2,C8H10N4O2,609.76801,3.7130,11,514.63,2,182.14058,1,"6-(1-methoxyindol-3-yl)-9-(6-oxooctyl)-3-sec-butyl-1,4,7,10-tetrazabicyclo[10.4.0]hexadecane-2,5,8,11-tetrone"
"InChI=1S/C17H17NO2/c1-18-8-7-10-3-2-4-12-15(10)13(18)9-11-5-6-14(19)17(20)16(11)12/h2-6,13,19-20H,7-9H2,1H3",VMWNQDUVQKEIOC-UHFFFAOYSA-N,Oc1c-2c(CC3N(CCc4c3c-2ccc4)C)ccc1O,C8H14ClN5,267.328,3.2260,0,250.88,0,104.26709,0,"6-methyl-5,6,6a,7-tetrahydro-4H-dibenzo[de,g]quinoline-10,11-diol"
"InChI=1S/C9H10Cl2N4/c10-6-3-5(12)4-7(11)8(6)15-9-13-1-2-14-9/h3-4H,1-2,12H2,(H2,13,14,15)",IEJXVRYNEISIKR-UHFFFAOYSA-N,Clc1cc(N)cc(Cl)c1NC=1NCCN=1,C8H8O3,245.11299,1.8690,2,191.88,0,148.26453,1,"2,6-dichloro-<I>N</I>1-(4,5-dihydro-1<I>H</I>-imidazol-2-yl)benzene-1,4-diamine"
"InChI=1S/C22H43N5O11/c1-22(19(33)14(30)11(26)10(5-28)37-22)38-21-12(27-2)15(31)18-9(34-21)4-8(25)20(36-18)35-17-7(24)3-6(23)13(29)16(17)32/h6-21,27-33H,3-5,23-26H2,1-2H3",OOPXUFVDTFVAMT-UHFFFAOYSA-N,O1C(OC2OC3C(OC(OC4C(O)C(O)C(N)CC4N)C(N)C3)C(O)C2NC)(C)C(O)C(O)C(N)C1CO,C8H9NO2,553.60999,-5.6310,6,411.63,3,434.06335,1,"5-amino-2-[[7-amino-6-(4,6-diamino-2,3-dihydroxy-cyclohexoxy)-4-hydroxy-3-(methylamino)-2,3,4,4<I>a</I>,6,7,8,8<I>a</I>-octahydropyrano[3,2-b]pyran-2-yl]oxy]-6-(hydroxymethyl)-2-methyl-tetrahydropyran -3,4-diol"
"InChI=1S/C22H30N2/c1-3-23(4-2)15-10-16-24(21-13-6-5-7-14-21)22-17-19-11-8-9-12-20(19)18-22/h5-9,11-14,22H,3-4,10,15-18H2,1-2H3",NZLBHDRPUJLHCE-UHFFFAOYSA-N,N(CCCN(CC)CC)(C1Cc2c(C1)cccc2)c1ccccc1,C9H10O3,322.496,4.7250,8,339.63,0,17.243105,0,"<I>N</I>,<I>N</I>-diethyl-<I>N</I>'-indan-2-yl-<I>N</I>'-phenyl-propane-1,3-diamine"
"InChI=1S/C5H13O8P/c6-1-3(7)5(9)4(8)2-13-14(10,11)12/h3-9H,1-2H2,(H2,10,11,12)",VJDOAZKNBQCAGE-UHFFFAOYSA-N,P(OCC(O)C(O)C(O)CO)(O)(O)=O,C9H8O2,232.125,-3.7040,6,149.25,1,292.10422,1,"2,3,4,5-tetrahydroxypentyl dihydrogen phosphate"
"InChI=1S/C20H33NO/c1-2-3-4-5-6-7-8-9-10-11-12-13-14-15-16-17-18-19-20(21)22/h6-7,9-10,12-13,15-16H,2-5,8,11,14,17-19H2,1H3,(H2,21,22)",BNBSCAZCQDLUDU-UHFFFAOYSA-N,O=C(N)CCCC=CCC=CCC=CCC=CCCCCC,C10H11ClO3,303.48999,4.4460,14,329.88,1,201.05623,0,"(5<I>E</I>,8<I>E</I>,11<I>E</I>,14<I>E</I>)-icosa-5,8,11,14-tetraenamide"
"InChI=1S/C23H38O2/c1-4-5-6-7-8-9-10-11-12-13-14-15-16-17-18-19-20-21-23(24)25-22(2)3/h8-9,11-12,14-15,17-18,22H,4-7,10,13,16,19-21H2,1-3H3",DAFUJHDDFPOEKD-UHFFFAOYSA-N,O(C(C)C)C(=O)CCCC=CCC=CCC=CCC=CCCCCC,C10H11N3O3S,346.55499,6.2470,16,375.13,1,140.37317,1,"isopropyl (5<I>E</I>,8<I>E</I>,11<I>E</I>,14<I>E</I>)-icosa-5,8,11,14-tetraenoate"
"InChI=1S/C44H82NO7P/c1-6-8-10-12-14-16-18-20-22-23-24-25-27-29-31-33-35-37-44(46)52-43(42-51-53(47,48)50-40-38-45(3,4)5)41-49-39-36-34-32-30-28-26-21-19-17-15-13-11-9-7-2/h14,16,20,22,24-25,29,31,43H, 6-13,15,17-19,21,23,26-28,30,32-42H2,1-5H3",DUUSFCFZBREELS-UHFFFAOYSA-N,P(OCC(OC(=O)CCCC=CCC=CCC=CCC=CCCCCC)COCCCCCCCCCCCCCCCC)(OCC[N+](C)(C)C)(=O)[O-],C10H12O3,768.11401,10.0555,40,756.38,2,245.88481,1,"[3-hexadecoxy-2-[(5<I>E</I>,8<I>E</I>,11<I>E</I>,14<I>E</I>)-icosa-5,8,11,14-tetraenoyl]oxy-propyl] 2-(trimethylammonio)ethyl phosphate"
"InChI=1S/C44H82NO7P/c1-6-8-10-12-14-16-18-20-22-23-24-25-27-29-31-33-35-37-44(46)52-43(42-51-53(47,48)50-40-38-45(3,4)5)41-49-39-36-34-32-30-28-26-21-19-17-15-13-11-9-7-2/h14,16,20,22,24-25,29,31,43H, 6-13,15,17-19,21,23,26-28,30,32-42H2,1-5H3/p+1",DUUSFCFZBREELS-UHFFFAOYSA-O,P(OCC(OC(=O)CCCC=CCC=CCC=CCC=CCCCCC)COCCCCCCCCCCCCCCCC)(OCC[N+](C)(C)C)(O)=O,C12H7Cl3O2,769.12201,10.1055,40,756.38,2,226.07208,0,"2-[[3-hexadecoxy-2-[(5<I>E</I>,8<I>E</I>,11<I>E</I>,14<I>E</I>)-icosa-5,8,11,14-tetraenoyl]oxy-propoxy]-hydroxy-phosphoryl]oxyethyl-trimethyl-ammonium"
"InChI=1S/C21H31F3O/c1-2-3-4-5-6-7-8-9-10-11-12-13-14-15-16-17-18-19-20(25)21(22,23)24/h6-7,9-10,12-13,15-16H,2-5,8,11,14,17-19H2,1H3",PLWROONZUDKYKG-UHFFFAOYSA-N,FC(F)(F)C(=O)CCCC=CCC=CCC=CCC=CCCCCC,C13H10N2O3S,356.47198,5.9928,15,354.63,1,198.07974,1,"(6<I>E</I>,9<I>E</I>,12<I>E</I>,15<I>E</I>)-1,1,1-trifluorohenicosa-6,9,12,15-tetraen-2-one"
"InChI=1S/C19H20N2O7/c1-10(22)9-28-19(24)16-12(3)20-11(2)15(18(23)27-4)17(16)13-7-5-6-8-14(13)21(25)26/h5-8,17,20H,9H2,1-4H3",NCUCGYYHUFIYNU-UHFFFAOYSA-N,O(C(=O)C=1C(C(C(OC)=O)=C(NC=1C)C)c1ccccc1[N+](=O)[O-])CC(=O)C,C13H18O2,388.37598,2.2530,8,315.50,0,194.14549,0,"<I>O</I>5-acetonyl <I>O</I>3-methyl 2,6-dimethyl-4-(2-nitrophenyl)-1,4-dihydropyridine-3,5-dicarboxylate"
"InChI=1S/C22H44N6O10/c23-4-3-12(30)20(34)28-11-5-10(26)18(37-21-9(25)2-1-8(6-24)35-21)17(33)19(11)38-22-16(32)14(27)15(31)13(7-29)36-22/h8-19,21-22,29-33H,1-7,23-27H2,(H,28,34)",MKKYBZZTJQGVCD-UHFFFAOYSA-N,O1C(CO)C(O)C(N)C(O)C1OC1C(O)C(OC2OC(CCC2N)CN)C(N)CC1NC(=O)C(O)CCN,C13H9Cl3N2O,552.62598,-6.4010,11,427.63,3,488.17044,1,"4-amino-<I>N</I>-[5-amino-4-[3-amino-6-(aminomethyl)tetrahydropyran-2-yl]oxy-2-[4-amino-3,5-dihydroxy-6-(hydroxymethyl)tetrahydropyran-2-yl]oxy-3-hydroxy-cyclohexyl]-2-hydroxy-butanamide"
"InChI=1S/C6H16N6/c7-5(8)11-3-1-2-4-12-6(9)10/h1-4H2,(H4,7,8,11)(H4,9,10,12)",HGMDNMBBCKDWTQ-UHFFFAOYSA-N,N(CCCCNC(N)=N)C(N)=N,C14H12O3,172.23599,-0.1900,7,156.63,1,291.65018,1,1-(4-guanidinobutyl)guanidine
"InChI=1S/C10H13NO2/c1-3-7-13-10(12)9-5-4-6-11(2)8-9/h1,5H,4,6-8H2,2H3",SPHRJZBOFYIKMC-UHFFFAOYSA-N,O(C(=O)C=1CN(CCC=1)C)CC#C,C15H12N2O,179.21899,0.5400,4,184.00,0,116.06622,0,"prop-2-ynyl 1-methyl-3,6-dihydro-2<I>H</I>-pyridine-5-carboxylate"
"InChI=1S/C38H74N18O10/c1-21(29(59)52-26(13-8-20-50-38(46)47)33(63)54-24(11-3-5-17-40)34(64)56-27(35(65)66)14-15-28(57)58)51-31(61)25(12-7-19-49-37(44)45)55-32(62)23(10-2-4-16-39)53-30(60)22(41)9-6-18- 48-36(42)43/h21-27H,2-20,39-41H2,1H3,(H,51,61)(H,52,59)",OUKSKNTVYYVIMZ-UHFFFAOYSA-N,OC(=O)C(NC(=O)C(NC(=O)C(NC(=O)C(NC(=O)C(NC(=O)C(NC(=O)C(N)CCCN=C(N)N)CCCCN)CCCN=C(N)N)C)CCCN=C(N)N)CCCCN)CCC(O)=O,C4H4KNO4S,943.12598,-4.7360,42,797.50,3,834.3327,1,2-[[6-amino-2-[[2-[2-[[2-[[6-amino-2-[(2-amino-5-guanidino-pentanoyl)amino]hexanoyl]amino]-5-guanidino-pentanoyl]amino]propanoylamino]-5-guanidino-pentanoyl]amino]hexanoyl]amino]pentanedioic acid
"InChI=1S/C23H36N6O5S/c1-14-8-10-29(18(12-14)22(31)32)21(30)17(6-4-9-26-23(24)25)28-35(33,34)19-7-3-5-16-11-15(2)13-27-20(16)19/h3,5,7,14-15,17-18,27-28H,4,6,8-13H2,1-2H3,(H,31,32)(H4,24,25,26)",KXNPVXPOPUZYGB-UHFFFAOYSA-N,S(=O)(=O)(NC(CCCN=C(N)N)C(=O)N1CCC(CC1C(O)=O)C)c1c2NCC(Cc2ccc1)C,C7H6O3,508.64398,1.6150,10,422.50,3,285.40979,0,"1-[5-guanidino-2-[(3-methyl-1,2,3,4-tetrahydroquinolin-8-yl)sulfonylamino]pentanoyl]-4-methyl-piperidine-2-carboxylic acid"
"InChI=1S/C6H15N5O/c7-4(5(8)12)2-1-3-11-6(9)10/h4H,1-3,7H2,(H2,8,12)(H4,9,10,11)/p+1",ULEBESPCVWBNIF-UHFFFAOYSA-O,O=C(N)C(N)CCC[NH+]=C(N)N,C7H8N4O2,174.228,-1.3970,5,149.63,1,259.43686,1,"diaminomethylene-(4,5-diamino-5-oxo-pentyl)ammonium"
"InChI=1S/C6H15N5O/c7-4(5(8)12)2-1-3-11-6(9)10/h4H,1-3,7H2,(H2,8,12)(H4,9,10,11)",ULEBESPCVWBNIF-UHFFFAOYSA-N,O=C(N)C(N)CCCN=C(N)N,C8H10N4O2,173.22,-1.8740,5,149.63,1,295.51819,1,2-amino-5-guanidino-pentanamide
"InChI=1S/C11H15N5O3/c12-10-7-11(14-3-13-10)16(4-15-7)6-1-5(2-17)8(18)9(6)19/h3-6,8-9,17-19H,1-2H2,(H2,12,13,14)",UGRNVLGKAGREKS-UHFFFAOYSA-N,OC1C(O)C(n2c3ncnc(N)c3nc2)CC1CO,C8H14ClN5,265.27301,-1.7059,2,219.50,0,281.47141,0,"3-(6-aminopurin-9-yl)-5-(hydroxymethyl)cyclopentane-1,2-diol"
"InChI=1S/C17H11NO7/c1-23-12-4-2-3-8-9(12)5-11(18(21)22)14-10(17(19)20)6-13-16(15(8)14)25-7-24-13/h2-6H,7H2,1H3,(H,19,20)",BBFQZRXNYIEMAW-UHFFFAOYSA-N,O1c2cc(c3c(c4c(cc3[N+](=O)[O-])c(OC)ccc4)c2OC1)C(O)=O,C8H8O3,341.27499,3.6500,3,286.13,0,213.17625,1,"8-methoxy-6-nitro-naphtho[2,1-g][1,3]benzodioxole-5-carboxylic acid"
"InChI=1S/C15H24/c1-11(2)13-8-9-14-7-5-6-12(3)15(14,4)10-13/h9,12-13H,1,5-8,10H2,2-4H3",YONHOSLUBQJXPR-UHFFFAOYSA-N,C1C2(C(CCCC2C)=CCC1C(C)=C)C,C8H9NO2,204.35699,5.9655,1,206.88,0,44.365078,0,"6-isopropenyl-4,4<I>a</I>-dimethyl-2,3,4,5,6,7-hexahydro-1<I>H</I>-naphthalene"
"InChI=1S/C17H11N3O4/c21-16-12-3-1-2-4-14(12)24-17-11(9-19-8-7-18-10-19)5-6-13(15(16)17)20(22)23/h1-8,10H,9H2",JLTNBMDVMUSXHQ-UHFFFAOYSA-N,O1c2c(C(=O)c3c1cccc3)c([N+](=O)[O-])ccc2Cn1ccnc1,C9H10O3,321.29199,2.5060,3,286.75,0,151.62836,1,4-(imidazol-1-ylmethyl)-1-nitro-xanthen-9-one
"InChI=1S/C15H21N3O2S3/c1-15(2,3)17-6-9(19)7-21-14-18-10(8-22-14)11-4-5-12(23-11)13(16)20/h4-5,8-9,17,19H,6-7H2,1-3H3,(H2,16,20)",BHIAIPWSVYSKJS-UHFFFAOYSA-N,s1c(ccc1C(=O)N)-c1nc(sc1)SCC(O)CNC(C)(C)C,C9H8O2,371.54999,1.9970,8,298.75,0,179.29852,1,5-[2-[3-(tert-butylamino)-2-hydroxy-propyl]sulfanylthiazol-4-yl]thiophene-2-carboxamide
"InChI=1S/C14H18N2O5/c1-21-14(20)11(7-9-5-3-2-4-6-9)16-13(19)10(15)8-12(17)18/h2-6,10-11H,7-8,15H2,1H3,(H,16,19)(H,17,18)",IAOZJIPTCAWIRG-UHFFFAOYSA-N,O(C(=O)C(NC(=O)C(N)CC(O)=O)Cc1ccccc1)C,C10H12O3,294.30701,-0.0190,9,255.50,0,229.84892,0,3-amino-4-[(1-benzyl-2-methoxy-2-oxo-ethyl)amino]-4-oxo-butanoic acid
"InChI=1S/C14H19N6O10P/c15-5(1-7(21)22)14(25)30-31(26,27)28-2-6-9(23)10(24)13(29-6)20-4-19-8-11(16)17-3-18-12(8)20/h3-6,9-10,13,23-24H,1-2,15H2,(H,21,22)(H,26,27)(H2,16,17,18)",QPBSGQWTJLPZNF-UHFFFAOYSA-N,P(OCC1OC(n2c3ncnc(N)c3nc2)C(O)C1O)(OC(=O)C(N)CC(O)=O)(O)=O,C12H7Cl3O2,462.31198,-4.1139,9,336.13,2,468.16901,1,"3-amino-4-[[5-(6-aminopurin-9-yl)-3,4-dihydroxy-tetrahydrofuran-2-yl]methoxy-hydroxy-phosphoryl]oxy-4-oxo-butanoic acid"
"InChI=1S/C9H8O4/c1-6(10)13-8-5-3-2-4-7(8)9(11)12/h2-5H,1H3,(H,11,12)",BSYNRYMUTXBXSQ-UHFFFAOYSA-N,O(C(=O)C)c1ccccc1C(O)=O,C13H10N2O3S,180.159,1.5140,3,164.25,0,139.58315,1,2-acetoxybenzoic acid
"InChI=1S/C21H27N5O7S/c1-21(2)15(20(32)33)26-18(31)14(19(26)34-21)25-17(30)13(9-4-6-10(27)7-5-9)24-16(29)11(22)8-12(28)23-3/h4-7,11,13-15,19,27H,8,22H2,1-3H3,(H,23,28)(H,24,29)(H,25,30)(H,32,33)",BHELIUBJHYAEDK-UHFFFAOYSA-N,S1C2N(C(C(O)=O)C1(C)C)C(=O)C2NC(=O)C(NC(=O)C(N)CC(=O)NC)c1ccc(O)cc1,C13H18O2,493.54099,-1.1030,11,397.38,2,316.8959,0,"6-[[2-[[2-amino-4-(methylamino)-4-oxo-butanoyl]amino]-2-(4-hydroxyphenyl)acetyl]amino]-3,3-dimethyl-7-oxo-4-thia-1-azabicyclo[3.2.0]heptane-2-carboxylic acid"
"InChI=1S/C40H52O4/c1-27(17-13-19-29(3)21-23-33-31(5)37(43)35(41)25-39(33,7)8)15-11-12-16-28(2)18-14-20-30(4)22-24-34-32(6)38(44)36(42)26-40(34,9)10/h11-24,35-36,41-42H,25-26H2,1-10H3",MQZIGYBFDRPAKN-UHFFFAOYSA-N,OC1CC(C)(C)C(C=CC(=CC=CC(=CC=CC=C(C=CC=C(C=CC2=C(C)C(=O)C(O)CC2(C)C)C)C)C)C)=C(C)C1=O,C13H9Cl3N2O,596.85199,7.5060,10,596.88,2,153.86597,1,"6-hydroxy-3-[(1<I>E</I>,3<I>E</I>,5<I>E</I>,7<I>E</I>,9<I>E</I>,11<I>E</I>,13<I>E</I>,15<I>E</I>,17<I>E</I>)-18-(4-hydroxy-2,6,6-trimethyl-3-oxo-cyclohexen-1-yl)-3,7,12,16-tetramethyl-octadeca-1,3,5,7 ,9,11,13,15,17-nonaenyl]-2,4,4-trimethyl-cyclohex-2-en-1-one"
"InChI=1S/C28H31FN4O/c1-34-25-12-8-21(9-13-25)14-17-32-18-15-24(16-19-32)30-28-31-26-4-2-3-5-27(26)33(28)20-22-6-10-23(29)11-7-22/h2-13,24H,14-20H2,1H3,(H,30,31)",GXDALQBWZGODGZ-UHFFFAOYSA-N,Fc1ccc(cc1)Cn1c2c(nc1NC1CCN(CC1)CCc1ccc(OC)cc1)cccc2,C14H12O3,458.58099,5.9950,8,445.00,1,82.693535,0,1-[(4-fluorophenyl)methyl]-<I>N</I>-[1-[2-(4-methoxyphenyl)ethyl]-4-piperidyl]benzimidazol-2-amine
"InChI=1S/C17H35N5O6/c1-7(19)9-5-4-8(20)17(27-9)28-15-11(21)13(24)16(26-3)12(14(15)25)22(2)10(23)6-18/h7-9,11-17,24-25H,4-6,18-21H2,1-3H3",BIDUPMYXGFNAEJ-UHFFFAOYSA-N,O1C(OC2C(N)C(O)C(OC)C(N(C(=O)CN)C)C2O)C(N)CCC1C(N)C,C15H12N2O,405.496,-3.8760,7,330.00,2,320.22839,1,"2-amino-<I>N</I>-[4-amino-3-[3-amino-6-(1-aminoethyl)tetrahydropyran-2-yl]oxy-2,5-dihydroxy-6-methoxy-cyclohexyl]-<I>N</I>-methyl-acetamide"
"InChI=1S/C14H22N2O3/c1-10(2)16-8-12(17)9-19-13-5-3-11(4-6-13)7-14(15)18/h3-6,10,12,16-17H,7-9H2,1-2H3,(H2,15,18)",METKIMKYRPQLGS-UHFFFAOYSA-N,O(CC(O)CNC(C)C)c1ccc(cc1)CC(=O)N,C4H4KNO4S,266.341,0.7320,8,251.00,0,173.93777,1,2-[4-[2-hydroxy-3-(isopropylamino)propoxy]phenyl]acetamide
"InChI=1S/C33H35FN2O5/c1-21(2)31-30(33(41)35-25-11-7-4-8-12-25)29(22-9-5-3-6-10-22)32(23-13-15-24(34)16-14-23)36(31)18-17-26(37)19-27(38)20-28(39)40/h3-16,21,26-27,37-38H,17-20H2,1-2H3,(H,35,41)(H,39,4 0)",XUKUURHRXDUEBC-UHFFFAOYSA-N,Fc1ccc(cc1)-c1n(CCC(O)CC(O)CC(O)=O)c(C(C)C)c(C(=O)Nc2ccccc2)c1-c1ccccc1,C7H6O3,558.64996,6.6470,13,509.50,2,174.68155,0,"7-[2-(4-fluorophenyl)-5-isopropyl-3-phenyl-4-(phenylcarbamoyl)pyrrol-1-yl]-3,5-dihydroxy-heptanoic acid"
"InChI=1S/C10H16N5O13P3/c11-8-5-9(13-2-12-8)15(3-14-5)10-7(17)6(16)4(26-10)1-25-30(21,22)28-31(23,24)27-29(18,19)20/h2-4,6-7,10,16-17H,1H2,(H,21,22)(H,23,24)(H2,11,12,13)(H2,18,19,20)/p-3",ZKHQWZAMYRWXGA-UHFFFAOYSA-K,P(OCC1OC(n2c3ncnc(N)c3nc2)C(O)C1O)(OP(OP(O)(=O)[O-])(=O)[O-])(=O)[O-],C7H8N4O2,504.15799,-5.1199,8,312.63,2,499.6897,1,"[[[5-(6-aminopurin-9-yl)-3,4-dihydroxy-tetrahydrofuran-2-yl]methoxy-oxido-phosphoryl]oxy-oxido-phosphoryl] hydrogen phosphate"
"InChI=1S/C10H16N2O4/c1-10(2,3)7-5(8(13)12-16-7)4-6(11)9(14)15/h6H,4,11H2,1-3H3,(H,12,13)(H,14,15)",PIXJURSCCVBKRF-UHFFFAOYSA-N,O1NC(=O)C(CC([NH3+])C(=O)[O-])=C1C(C)(C)C,C8H10N4O2,228.248,0.1970,4,186.75,0,201.66933,0,2-azaniumyl-3-(5-tert-butyl-3-oxo-isoxazol-4-yl)propanoate
"InChI=1S/C10H16N2O4/c1-10(2,3)7-5(8(13)12-16-7)4-6(11)9(14)15/h6H,4,11H2,1-3H3,(H,12,13)(H,14,15)",PIXJURSCCVBKRF-UHFFFAOYSA-N,O1NC(=O)C(CC(N)C(O)=O)=C1C(C)(C)C,C8H14ClN5,228.248,-2.3227,4,186.75,0,188.58034,1,2-amino-3-(5-tert-butyl-3-oxo-isoxazol-4-yl)propanoic acid
"InChI=1S/C8H14ClN5/c1-4-10-7-12-6(9)13-8(14-7)11-5(2)3/h5H,4H2,1-3H3,(H2,10,11,12,13,14)",MXWJVTOOROXGIU-UHFFFAOYSA-N,Clc1nc(nc(n1)NCC)NC(C)C,C9H10O3,215.688,0.6050,4,191.25,0,105.47383,0,"6-chloro-<I>N</I>2-ethyl-<I>N</I>4-isopropyl-1,3,5-triazine-2,4-diamine"