InChI,Key,smiles,Formula,Weight,logP(o/w),b_rotN,vol,lip_violation,ASA_P,Natural,ChemicalName
"InChI=1S/C17H22N4O6/c1-7-3-9-10(4-8(7)2)21(5-11(23)14(25)12(24)6-22)15-13(18-9)16(26)20-17(27)19-15/h3-4,11-14,18,22-25H,5-6H2,1-2H3,(H,20,26,27)",UTKDOUCGQVLJIN-UHFFFAOYSA-N,O=C1NC(=O)N=C2N(c3cc(C)c(cc3NC12)C)CC(O)C(O)C(O)CO,C9H8O2,378.38498,-1.0880,5,312.75,1,290.1557,1,"7,8-dimethyl-10-(2,3,4,5-tetrahydroxypentyl)-4<I>a</I>,5-dihydrobenzo[g]pteridine-2,4-dione"
"InChI=1S/C11H17N2/c1-12-7-3-5-10(9-12)11-6-4-8-13(11)2/h3,5,7,9,11H,4,6,8H2,1-2H3/q+1",HIOROZIUERMMRQ-UHFFFAOYSA-N,[n+]1(cc(ccc1)C1N(CCC1)C)C,C10H11ClO3,177.271,2.2600,1,187.63,0,77.057274,1,1-methyl-3-(1-methylpyrrolidin-2-yl)pyridin-1-ium
"InChI=1S/C10H13N2/c1-12-7-3-5-10(12)9-4-2-6-11-8-9/h2,4,6-8,10H,3,5H2,1H3/q+1",GTQXYYYOJZZJHL-UHFFFAOYSA-N,[N+]1(=CCCC1c1cccnc1)C,C10H11N3O3S,161.228,1.0780,1,168.25,0,58.681812,0,"3-(1-methyl-3,4-dihydro-2<I>H</I>-pyrrol-1-ium-2-yl)pyridine"
"InChI=1S/C10H14N2O/c1-12-7-3-5-10(12,13)9-4-2-6-11-8-9/h2,4,6,8,13H,3,5,7H2,1H3",BOQRPPFUUSHFGW-UHFFFAOYSA-N,OC1(N(CCC1)C)c1cccnc1,C10H11ClO3,178.235,1.3610,1,167.25,0,78.988243,1,1-methyl-2-(3-pyridyl)pyrrolidin-2-ol
"InChI=1S/C10H12N2O2/c13-7-12-9(3-4-10(12)14)8-2-1-5-11-6-8/h1-2,5-6,9,13H,3-4,7H2",GQUFOBHEPVFQMD-UHFFFAOYSA-N,O=C1N(CO)C(CC1)c1cccnc1,C10H11N3O3S,192.218,-0.1160,2,179.00,0,114.31474,0,1-(hydroxymethyl)-5-(3-pyridyl)pyrrolidin-2-one
"InChI=1S/C10H14N2O/c1-11-6-3-5-10(13)9-4-2-7-12-8-9/h2,4,7-8,11H,3,5-6H2,1H3",SGDIDUFQYHRMPR-UHFFFAOYSA-N,O=C(CCCNC)c1cccnc1,C10H12O3,178.235,0.5390,5,179.88,0,96.667595,1,4-(methylamino)-1-(3-pyridyl)butan-1-one
"InChI=1S/C9H10N2O2/c10-9(13)4-3-8(12)7-2-1-5-11-6-7/h1-2,5-6H,3-4H2,(H2,10,13)",DJEKVKGYYASXCW-UHFFFAOYSA-N,O=C(CCC(=O)N)c1cccnc1,C12H7Cl3O2,178.19099,-0.6530,4,167.38,0,149.00891,1,4-oxo-4-(3-pyridyl)butanamide
"InChI=1S/C10H12N2O2/c1-11-10(14)5-4-9(13)8-3-2-6-12-7-8/h2-3,6-7H,4-5H2,1H3,(H,11,14)",WOOSCPWOYYLIHS-UHFFFAOYSA-N,O=C(CCC(=O)NC)c1cccnc1,C13H10N2O3S,192.218,-0.2970,5,186.00,0,142.47647,0,<I>N</I>-methyl-4-oxo-4-(3-pyridyl)butanamide
"InChI=1S/C9H9NO3/c11-8(3-4-9(12)13)7-2-1-5-10-6-7/h1-2,5-6H,3-4H2,(H,12,13)",JGSUNMCABQUBOY-UHFFFAOYSA-N,OC(=O)CCC(=O)c1cccnc1,C13H18O2,179.175,0.0810,4,164.63,0,155.21275,1,4-oxo-4-(3-pyridyl)butanoic acid
"InChI=1S/C9H11NO3/c11-8(3-4-9(12)13)7-2-1-5-10-6-7/h1-2,5-6,8,11H,3-4H2,(H,12,13)",STZOZPPVGWNSMC-UHFFFAOYSA-N,OC(CCC(O)=O)c1cccnc1,C13H9Cl3N2O,181.19099,0.3070,4,164.63,0,163.88084,0,4-hydroxy-4-(3-pyridyl)butanoic acid
"InChI=1S/C9H9NO2/c11-9(12)5-1-3-8-4-2-6-10-7-8/h1-4,6-7H,5H2,(H,11,12)",MHVJWSPYMHAALE-UHFFFAOYSA-N,OC(=O)CC=Cc1cccnc1,C14H12O3,163.17599,1.0820,3,158.38,0,119.62951,1,(<I>E</I>)-4-(3-pyridyl)but-3-enoic acid
"InChI=1S/C27H44O/c1-18(2)7-6-8-19(3)23-11-12-24-22-10-9-20-17-21(28)13-15-26(20,4)25(22)14-16-27(23,24)5/h17-19,22-25H,6-16H2,1-5H3",NYOXRYYXRWJDKP-UHFFFAOYSA-N,O=C1CCC2(C3C(C4CCC(C(CCCC(C)C)C)C4(CC3)C)CCC2=C1)C,C15H12N2O,384.64798,7.4010,5,361.88,1,46.798248,1,"17-(1,5-dimethylhexyl)-10,13-dimethyl-1,2,6,7,8,9,11,12,14,15,16,17-dodecahydrocyclopenta[a]phenanthren-3-one"
"InChI=1S/C4H8O3/c1-3(5)2-4(6)7/h3,5H,2H2,1H3,(H,6,7)",WHBMMWSBFZVSSR-UHFFFAOYSA-N,OC(CC(O)=O)C,C4H4KNO4S,104.105,-0.3490,2,88.50,0,126.49505,0,3-hydroxybutanoic acid
"InChI=1S/C6H11O10P/c7-2(1-16-17(13,14)15)3(8)4(9)5(10)6(11)12/h2-4,7-9H,1H2,(H,11,12)(H2,13,14,15)",ZKUSPPOKDDRMIU-UHFFFAOYSA-N,P(OCC(O)C(O)C(O)C(=O)C(O)=O)(O)(O)=O,C7H6O3,274.11798,-3.9500,7,177.00,1,361.06781,1,"3,4,5-trihydroxy-2-oxo-6-phosphonooxy-hexanoic acid"
"InChI=1S/C19H28O2/c1-18-9-7-13(20)11-12(18)3-4-14-15-5-6-17(21)19(15,2)10-8-16(14)18/h12,14-16H,3-11H2,1-2H3",RAJWOBJTTGJROA-UHFFFAOYSA-N,O=C1CCC2C3C(CCC12C)C1(C(CC(=O)CC1)CC3)C,C7H8N4O2,288.431,3.0430,0,248.00,0,77.310242,0,"10,13-dimethyl-2,4,5,6,7,8,9,11,12,14,15,16-dodecahydro-1<I>H</I>-cyclopenta[a]phenanthrene-3,17-dione"
"InChI=1S/C13H18ClNO/c1-9(15-13(2,3)4)12(16)10-6-5-7-11(14)8-10/h5-9,15H,1-4H3",SNPPWIUOZRMYNY-UHFFFAOYSA-N,Clc1cc(ccc1)C(=O)C(NC(C)(C)C)C,C8H10N4O2,239.74599,3.5430,4,217.88,0,34.916691,1,2-(tert-butylamino)-1-(3-chlorophenyl)propan-1-one
"InChI=1S/C13H20ClNO/c1-9(15-13(2,3)4)12(16)10-6-5-7-11(14)8-10/h5-9,12,15-16H,1-4H3",NDPTTXIBLSWNSF-UHFFFAOYSA-N,Clc1cc(ccc1)C(O)C(NC(C)(C)C)C,C8H14ClN5,241.76199,3.4150,4,217.88,0,34.771858,1,2-(tert-butylamino)-1-(3-chlorophenyl)propan-1-ol
"InChI=1S/C13H18ClNO2/c1-9(15-13(2,3)8-16)12(17)10-5-4-6-11(14)7-10/h4-7,9,15-16H,8H2,1-3H3",AKOAEVOSDHIVFX-UHFFFAOYSA-N,Clc1cc(ccc1)C(=O)C(NC(CO)(C)C)C,C8H8O3,255.745,2.5080,5,223.13,0,82.915855,0,"1-(3-chlorophenyl)-2-[(2-hydroxy-1,1-dimethyl-ethyl)amino]propan-1-one"
"InChI=1S/C7H5ClO2/c8-6-3-1-2-5(4-6)7(9)10/h1-4H,(H,9,10)",LULAYUGMBFYYEX-UHFFFAOYSA-N,Clc1cc(ccc1)C(O)=O,C8H9NO2,156.56799,2.2120,1,132.63,0,94.446136,1,3-chlorobenzoic acid
"InChI=1S/C9H8ClNO3/c10-7-3-1-2-6(4-7)9(14)11-5-8(12)13/h1-4H,5H2,(H,11,14)(H,12,13)",ICYUIIJXZHPESK-UHFFFAOYSA-N,Clc1cc(ccc1)C(=O)NCC(O)=O,C9H10O3,213.62,1.3390,4,180.50,0,153.09248,0,2-[(3-chlorobenzoyl)amino]acetic acid
"InChI=1S/C6H12O4/c1-6(10,2-3-7)4-5(8)9/h7,10H,2-4H2,1H3,(H,8,9)",KJTLQQUUPVSXIM-UHFFFAOYSA-N,OC(CC(O)=O)(CCO)C,C9H8O2,148.15799,-0.5350,4,118.63,0,177.97743,1,"3,5-dihydroxy-3-methyl-pentanoic acid"
"InChI=1S/C18H24O2/c1-18-9-8-14-13-5-3-12(19)10-11(13)2-4-15(14)16(18)6-7-17(18)20/h3,5,10,14-17,19-20H,2,4,6-9H2,1H3",VOXZDWNPVJITMN-UHFFFAOYSA-N,OC1CCC2C3C(CCC12C)c1c(cc(O)cc1)CC3,C10H11ClO3,272.388,3.8510,0,247.25,0,83.765732,1,"13-methyl-6,7,8,9,11,12,14,15,16,17-decahydrocyclopenta[a]phenanthrene-3,17-diol"
"InChI=1S/C16H25N5O15P2/c1-4-7(22)9(24)11(26)15(33-4)35-38(30,31)36-37(28,29)32-2-5-8(23)10(25)14(34-5)21-3-18-6-12(21)19-16(17)20-13(6)27/h3-5,7-11,14-15,22-26H,2H2,1H3,(H,28,29)(H,30,31)(H3,17,19,20, 27)",LQEBEXMHBLQMDB-UHFFFAOYSA-N,P(OC1OC(C)C(O)C(O)C1O)(OP(OCC1OC(n2c3NC(=NC(=O)c3nc2)N)C(O)C1O)(O)=O)(O)=O,C10H11N3O3S,589.34399,-5.0390,8,399.00,3,507.03156,0,"[[5-(2-amino-6-oxo-3<I>H</I>-purin-9-yl)-3,4-dihydroxy-tetrahydrofuran-2-yl]methoxy-hydroxy-phosphoryl] (3,4,5-trihydroxy-6-methyl-tetrahydropyran-2-yl) hydrogen phosphate"
"InChI=1S/C6H10O6/c7-1-2(8)4(10)6(12)5(11)3(1)9/h1-5,7-11H",VYEGBDHSGHXOGT-UHFFFAOYSA-N,OC1C(O)C(O)C(=O)C(O)C1O,C10H12O3,178.14,-3.3720,0,119.38,0,222.31166,1,"2,3,4,5,6-pentahydroxycyclohexanone"
"InChI=1S/C6H14O6/c7-1-3(9)5(11)6(12)4(10)2-8/h3-12H,1-2H2",FBPFZTCFMRRESA-UHFFFAOYSA-N,OC(C(O)C(O)CO)C(O)CO,C12H7Cl3O2,182.172,-3.3900,5,135.63,1,237.60782,0,"hexane-1,2,3,4,5,6-hexol"
"InChI=1S/C8H16O/c1-2-3-4-5-6-7-8-9/h8H,2-7H2,1H3",NUJGJRNETVAIRJ-UHFFFAOYSA-N,O=CCCCCCCC,C13H10N2O3S,128.215,2.8560,6,136.75,0,48.00042,1,octanal
"InChI=1S/C9H13N5O3/c1-3(15)6(16)4-2-11-7-5(12-4)8(17)14-9(10)13-7/h3,5,7,11,15H,2H2,1H3,(H3,10,13,14,17)",JPXBDMKKWKFPJT-UHFFFAOYSA-N,O=C1NC(=NC2NCC(=NC12)C(=O)C(O)C)N,C13H18O2,239.235,-2.7440,2,192.88,0,258.55869,1,"2-amino-6-(2-hydroxypropanoyl)-4<I>a</I>,7,8,8<I>a</I>-tetrahydro-3<I>H</I>-pteridin-4-one"
"InChI=1S/C3H4N2O4/c4-3(9)5-1(6)2(7)8/h(H,7,8)(H3,4,5,6,9)",UWBHMRBRLOJJAA-UHFFFAOYSA-N,OC(=O)C(=O)NC(=O)N,C13H9Cl3N2O,132.075,-1.8130,3,99.00,0,277.24637,0,2-oxo-2-ureido-acetic acid
"InChI=1S/C7H8N2O/c1-9-4-2-3-6(5-9)7(8)10/h2-5H,1H3,(H-,8,10)/p+1",LDHMAVIPBRSVRG-UHFFFAOYSA-O,O=C(N)c1ccc[n+](c1)C,C14H12O3,137.162,0.5010,1,134.38,0,163.68053,1,1-methylpyridin-1-ium-3-carboxamide
"InChI=1S/C6H13NO2S/c1-10(2)4-3-5(7)6(8)9/h5H,3-4,7H2,1-2H3/p+1",YDBYJHTYSHBBAU-UHFFFAOYSA-O,[S+](CCC(N)C(O)=O)(C)C,C15H12N2O,164.24899,-3.3777,4,134.50,0,155.64255,0,(3-amino-3-carboxy-propyl)-dimethyl-sulfonium
"InChI=1S/C10H14N5O6PS2/c11-10-14-7-4(8(16)15-10)12-3-6(24)5(23)2(21-9(3)13-7)1-20-22(17,18)19/h2-3,9,12,23-24H,1H2,(H2,17,18,19)(H4,11,13,14,15,16)",HPEUEJRPDGMIMY-UHFFFAOYSA-N,SC=1C(OC2NC=3NC(=NC(=O)C=3NC2C=1S)N)COP(O)(O)=O,C4H4KNO4S,395.35699,-0.4330,3,269.25,2,446.90408,1,"[2-amino-4-oxo-6,7-bis(sulfanyl)-1,5,5<I>a</I>,8,9<I>a</I>,10-hexahydropyrano[3,2-g]pteridin-8-yl]methyl dihydrogen phosphate"
"InChI=1S/C7H8O2/c1-9-7-5-3-2-4-6(7)8/h2-5,8H,1H3",LHGVFZTZFXWLCP-UHFFFAOYSA-N,O(C)c1ccccc1O,C7H6O3,124.139,1.5520,1,121.75,0,76.877022,1,2-methoxyphenol
"InChI=1S/C23H45NO4/c1-5-6-7-8-9-10-11-12-13-14-15-16-17-18-23(27)28-21(19-22(25)26)20-24(2,3)4/h21H,5-20H2,1-4H3",XOMRRQXKHMYMOC-UHFFFAOYSA-N,O(C(CC(=O)[O-])C[N+](C)(C)C)C(=O)CCCCCCCCCCCCCCC,C7H8N4O2,399.616,5.7970,20,392.25,0,163.94305,0,3-hexadecanoyloxy-4-(trimethylammonio)butanoate
"InChI=1S/C23H45NO4/c1-5-6-7-8-9-10-11-12-13-14-15-16-17-18-23(27)28-21(19-22(25)26)20-24(2,3)4/h21H,5-20H2,1-4H3/p+1",XOMRRQXKHMYMOC-UHFFFAOYSA-O,O(C(CC(O)=O)C[N+](C)(C)C)C(=O)CCCCCCCCCCCCCCC,C8H10N4O2,400.62399,5.6760,20,392.25,1,156.13196,1,(3-carboxy-2-hexadecanoyloxy-propyl)-trimethyl-ammonium
"InChI=1S/C10H18N4O5/c11-10(12)13-5-1-2-6(9(18)19)14-7(15)3-4-8(16)17/h6H,1-5H2,(H,14,15)(H,16,17)(H,18,19)(H4,11,12,13)",UMOXFSXIFQOWTD-UHFFFAOYSA-N,OC(=O)C(NC(=O)CCC(O)=O)CCCN=C(N)N,C8H14ClN5,274.27701,-1.4160,10,225.50,1,350.29889,0,2-(3-carboxypropanoylamino)-5-guanidino-pentanoic acid
"InChI=1S/C9H9NO3/c11-8(12)6-10-9(13)7-4-2-1-3-5-7/h1-5H,6H2,(H,10,13)(H,11,12)",QIAFMBKCNZACKA-UHFFFAOYSA-N,OC(=O)CNC(=O)c1ccccc1,C8H8O3,179.175,0.7100,4,164.50,0,153.94821,1,2-benzamidoacetic acid
"InChI=1S/C6H13O7PS/c1-15-2-3-4(7)5(8)6(12-3)13-14(9,10)11/h3-8H,2H2,1H3,(H2,9,10,11)",JTFITTQBRJDSTL-UHFFFAOYSA-N,S(CC1OC(OP(O)(O)=O)C(O)C1O)C,C8H9NO2,260.203,-1.9980,4,167.13,0,297.39661,1,"[3,4-dihydroxy-5-(methylsulfanylmethyl)tetrahydrofuran-2-yl] dihydrogen phosphate"
"InChI=1S/C6H13O9P/c7-1-2-3(8)4(9)5(10)6(14-2)15-16(11,12)13/h2-10H,1H2,(H2,11,12,13)",HXXFSFRBOHSIMQ-UHFFFAOYSA-N,P(OC1OC(CO)C(O)C(O)C1O)(O)(O)=O,C9H10O3,260.13501,-3.8190,3,165.88,1,285.5654,0,"[3,4,5-trihydroxy-6-(hydroxymethyl)tetrahydropyran-2-yl] dihydrogen phosphate"
"InChI=1S/C40H68O7P2/c1-31(2)17-11-19-33(5)21-13-23-35(7)25-15-26-37(9)29-38-39(30-46-49(44,45)47-48(41,42)43)40(38,10)28-16-27-36(8)24-14-22-34(6)20-12-18-32(3)4/h17-18,21-22,25,27,29,38-39H,11-16,19- 20,23-24,26,28,30H2,1-10H3,(H,44,45)(H2,41,42,43)",RVCNKTPCHZNAAO-UHFFFAOYSA-N,P(OCC1C(CCC=C(CCC=C(CCC=C(C)C)C)C)(C)C1C=C(CCC=C(CCC=C(CCC=C(C)C)C)C)C)(OP(O)(O)=O)(O)=O,C9H8O2,722.92499,4.8710,24,680.50,2,273.78046,1,"[2-methyl-3-[(1<I>E</I>,5<I>E</I>,9<I>E</I>)-2,6,10,14-tetramethylpentadeca-1,5,9,13-tetraenyl]-2-[(3<I>E</I>,7<I>E</I>)-4,8,12-trimethyltrideca-3,7,11-trienyl]cyclopropyl]methyl phosphono hydrogen ph osphate"
"InChI=1S/C30H52O7P2/c1-23(2)13-9-15-25(5)17-11-18-27(7)21-28-29(22-36-39(34,35)37-38(31,32)33)30(28,8)20-12-19-26(6)16-10-14-24(3)4/h13-14,17,19,21,28-29H,9-12,15-16,18,20,22H2,1-8H3,(H,34,35)(H2,31,3 2,33)",ATZKAUGGNMSCCY-UHFFFAOYSA-N,P(OCC1C(CCC=C(CCC=C(C)C)C)(C)C1C=C(CCC=C(CCC=C(C)C)C)C)(OP(O)(O)=O)(O)=O,C10H11ClO3,586.68701,3.1430,18,531.25,2,226.2645,0,"[2-[(3<I>E</I>)-4,8-dimethylnona-3,7-dienyl]-2-methyl-3-[(1<I>E</I>,5<I>E</I>)-2,6,10-trimethylundeca-1,5,9-trienyl]cyclopropyl]methyl phosphono hydrogen phosphate"
"InChI=1S/C6H11NO4/c7-4(6(10)11)2-1-3-5(8)9/h4H,1-3,7H2,(H,8,9)(H,10,11)",OYIFNHCXNCRBQI-UHFFFAOYSA-N,OC(=O)C(N)CCCC(O)=O,C10H11N3O3S,161.157,-2.9217,5,130.50,0,227.81937,1,2-aminohexanedioic acid
"InChI=1S/C4H10N2O2/c5-2-1-3(6)4(7)8/h3H,1-2,5-6H2,(H,7,8)",OGNSCSPNOLGXSM-UHFFFAOYSA-N,OC(=O)C(N)CCN,C10H12O3,118.136,-3.8727,3,98.75,0,215.17479,1,"2,4-diaminobutanoic acid"
"InChI=1S/C15H12O7/c16-7-4-10(19)12-11(5-7)22-15(14(21)13(12)20)6-1-2-8(17)9(18)3-6/h1-5,14-19,21H",CXQWRCVTCMQVQX-UHFFFAOYSA-N,O1c2c(C(=O)C(O)C1c1cc(O)c(O)cc1)c(O)cc(O)c2,C12H7Cl3O2,304.254,1.4460,1,248.75,0,242.43134,0,"2-(3,4-dihydroxyphenyl)-3,5,7-trihydroxy-chroman-4-one"
"InChI=1S/C10H9NO4/c11-7-4-2-1-3-6(7)8(12)5-9(13)10(14)15/h1-4H,5,11H2,(H,14,15)",CAOVWYZQMPNAFJ-UHFFFAOYSA-N,OC(=O)C(=O)CC(=O)c1ccccc1N,C13H10N2O3S,207.185,0.1070,4,181.50,0,218.5621,1,"4-(2-aminophenyl)-2,4-dioxo-butanoic acid"
"InChI=1S/C5H8O3S/c1-9-3-2-4(6)5(7)8/h2-3H2,1H3,(H,7,8)",SXFSQZDSUWACKX-UHFFFAOYSA-N,S(CCC(=O)C(O)=O)C,C13H18O2,148.18199,-0.0080,4,119.13,0,197.34721,0,4-methylsulfanyl-2-oxo-butanoic acid
"InChI=1S/C12H19N6O7P/c1-17(2)25-26(21,22)23-3-6-8(19)9(20)12(24-6)18-5-16-7-10(13)14-4-15-11(7)18/h4-6,8-9,12,19-20H,3H2,1-2H3,(H,21,22)(H2,13,14,15)",ZHMVYQXJIQHKMY-UHFFFAOYSA-N,P(OCC1OC(n2c3ncnc(N)c3nc2)C(O)C1O)(ON(C)C)(O)=O,C13H9Cl3N2O,390.293,-3.2149,6,294.00,1,374.0722,1,"[5-(6-aminopurin-9-yl)-3,4-dihydroxy-tetrahydrofuran-2-yl]methyl dimethylamino hydrogen phosphate"
"InChI=1S/C6H13O8P/c1-2-3(7)4(8)5(9)6(13-2)14-15(10,11)12/h2-9H,1H3,(H2,10,11,12)",PTVXQARCLQPGIR-UHFFFAOYSA-N,P(OC1OC(C)C(O)C(O)C1O)(O)(O)=O,C14H12O3,244.136,-2.7840,2,158.25,0,239.82709,1,"(3,4,5-trihydroxy-6-methyl-tetrahydropyran-2-yl) dihydrogen phosphate"
"InChI=1S/C6H13O7P/c1-6(9,4-5(7)8)2-3-13-14(10,11)12/h9H,2-4H2,1H3,(H,7,8)(H2,10,11,12)",OKZYCXHTTZZYSK-UHFFFAOYSA-N,P(OCCC(O)(CC(O)=O)C)(O)(O)=O,C15H12N2O,228.13699,-1.4220,6,154.13,0,255.87833,0,3-hydroxy-3-methyl-5-phosphonooxy-pentanoic acid
"InChI=1S/C6H16O18P4/c7-1-3(21-25(9,10)11)5(23-27(15,16)17)2(8)6(24-28(18,19)20)4(1)22-26(12,13)14/h1-8H,(H2,9,10,11)(H2,12,13,14)(H2,15,16,17)(H2,18,19,20)",ZAWIXNGTTZTBKV-UHFFFAOYSA-N,P(OC1C(OP(O)(O)=O)C(O)C(OP(O)(O)=O)C(OP(O)(O)=O)C1O)(O)(O)=O,C4H4KNO4S,500.07199,-7.5445,8,240.88,3,499.98279,1,"(2,5-dihydroxy-3,4,6-triphosphonooxy-cyclohexyl) dihydrogen phosphate"
"InChI=1S/C6H16O18P4/c7-1-3(21-25(9,10)11)2(8)5(23-27(15,16)17)6(24-28(18,19)20)4(1)22-26(12,13)14/h1-8H,(H2,9,10,11)(H2,12,13,14)(H2,15,16,17)(H2,18,19,20)",CIPFCGZLFXVXBG-UHFFFAOYSA-N,P(OC1C(OP(O)(O)=O)C(O)C(OP(O)(O)=O)C(O)C1OP(O)(O)=O)(O)(O)=O,C7H6O3,500.07199,-7.5445,8,248.63,3,532.93719,0,"(2,4-dihydroxy-3,5,6-triphosphonooxy-cyclohexyl) dihydrogen phosphate"
"InChI=1S/C11H22N2O4S/c1-11(2,7-14)9(16)10(17)13-4-3-8(15)12-5-6-18/h9,14,16,18H,3-7H2,1-2H3,(H,12,15)(H,13,17)",ZNXZGRMVNNHPCA-UHFFFAOYSA-N,SCCNC(=O)CCNC(=O)C(O)C(CO)(C)C,C7H8N4O2,278.37299,-0.9850,10,227.63,0,229.26357,1,"2,4-dihydroxy-3,3-dimethyl-<I>N</I>-[3-oxo-3-(2-sulfanylethylamino)propyl]butanamide"
"InChI=1S/C6H13O9P/c7-1-3(8)5(10)6(11)4(9)2-15-16(12,13)14/h3,5-8,10-11H,1-2H2,(H2,12,13,14)",ZKLLSNQJRLJIGT-UHFFFAOYSA-N,P(OCC(=O)C(O)C(O)C(O)CO)(O)(O)=O,C8H10N4O2,260.13501,-4.1490,7,170.88,1,306.67365,1,"(3,4,5,6-tetrahydroxy-2-oxo-hexyl) dihydrogen phosphate"
"InChI=1S/C6H17O21P5/c7-1-2(23-28(8,9)10)4(25-30(14,15)16)6(27-32(20,21)22)5(26-31(17,18)19)3(1)24-29(11,12)13/h1-7H,(H2,8,9,10)(H2,11,12,13)(H2,14,15,16)(H2,17,18,19)(H2,20,21,22)",CTPQAXVNYGZUAJ-UHFFFAOYSA-N,P(OC1C(OP(O)(O)=O)C(OP(O)(O)=O)C(O)C(OP(O)(O)=O)C1OP(O)(O)=O)(O)(O)=O,C8H14ClN5,580.05096,-8.9280,10,276.50,3,610.69971,0,"(2-hydroxy-3,4,5,6-tetraphosphonooxy-cyclohexyl) dihydrogen phosphate"
"InChI=1S/C6H14O12P2/c7-2-6(18-20(13,14)15)5(9)4(8)3(17-6)1-16-19(10,11)12/h3-5,7-9H,1-2H2,(H2,10,11,12)(H2,13,14,15)",YXWOAJXNVLXPMU-UHFFFAOYSA-N,P(OC1(OC(COP(O)(O)=O)C(O)C1O)CO)(O)(O)=O,C8H8O3,340.11398,-4.2240,6,193.25,2,388.78323,1,"[3,4-dihydroxy-2-(hydroxymethyl)-5-(phosphonooxymethyl)tetrahydrofuran-2-yl] dihydrogen phosphate"
"InChI=1S/C3H5N3/c4-3-1-5-2-6-3/h1-2H,4H2,(H,5,6)",QRZMXADUXZADTF-UHFFFAOYSA-N,[nH]1cc(nc1)N,C8H9NO2,83.094002,-0.7910,0,76.75,0,154.87456,0,1<I>H</I>-imidazol-4-amine
"InChI=1S/C5H13NO4S/c1-6(2,3)4-5-10-11(7,8)9/h4-5H2,1-3H3",WXCQAWGXWVRCGP-UHFFFAOYSA-N,S(OCC[N+](C)(C)C)(=O)(=O)[O-],C9H10O3,183.228,-1.2030,4,137.25,0,177.32288,1,2-(trimethylammonio)ethyl sulfate
"InChI=1S/C5H13NO4S/c1-6(2,3)4-5-10-11(7,8)9/h4-5H2,1-3H3/p+1",WXCQAWGXWVRCGP-UHFFFAOYSA-O,S(OCC[N+](C)(C)C)(O)(=O)=O,C9H8O2,184.23599,-1.1530,4,137.25,0,194.95024,1,trimethyl(2-sulfooxyethyl)ammonium
"InChI=1S/C4H6O4/c1-2(3(5)6)4(7)8/h2H,1H3,(H,5,6)(H,7,8)",ZIYVHBGGAOATLY-UHFFFAOYSA-N,OC(=O)C(C(O)=O)C,C10H11ClO3,118.088,-0.2420,2,94.00,0,177.18217,0,2-methylpropanedioic acid
"InChI=1S/C11H17N3O7S/c12-6(11(20)21)1-2-8(16)14-7(4-22-5-15)10(19)13-3-9(17)18/h5-7H,1-4,12H2,(H,13,19)(H,14,16)(H,17,18)(H,20,21)",FHXAGOICBFGEBF-UHFFFAOYSA-N,S(CC(NC(=O)CCC(N)C(O)=O)C(=O)NCC(O)=O)C=O,C10H11N3O3S,335.33701,-4.4807,13,261.75,1,398.27295,1,2-amino-5-[[2-(carboxymethylamino)-1-(formylsulfanylmethyl)-2-oxo-ethyl]amino]-5-oxo-pentanoic acid
"InChI=1S/C6H13NO8S/c8-1-2-4(9)5(10)3(6(11)15-2)7-16(12,13)14/h2-11H,1H2,(H,12,13,14)",PRDZVHCOEWJPOB-UHFFFAOYSA-N,S(O)(=O)(=O)NC1C(O)C(O)C(OC1O)CO,C10H12O3,259.23499,-3.4820,3,161.38,1,294.21704,0,"[2,4,5-trihydroxy-6-(hydroxymethyl)tetrahydropyran-3-yl]sulfamic acid"
"InChI=1S/C2H5O4P/c3-1-2-7(4,5)6/h1H,2H2,(H2,4,5,6)",YEMKIGUKNDOZEG-UHFFFAOYSA-N,P(O)(O)(=O)CC=O,C12H7Cl3O2,124.032,-1.6780,2,77.38,0,182.46855,1,2-oxoethylphosphonic acid
"InChI=1S/C21H35N9O15P2/c22-8(20(35)36)2-1-3-25-21(24)29-18-14(33)12(31)9(43-18)4-41-46(37,38)45-47(39,40)42-5-10-13(32)15(34)19(44-10)30-7-28-11-16(23)26-6-27-17(11)30/h6-10,12-15,18-19,31-34H,1-5,22H 2,(H,35,36)(H,37,38)(H,39,40)(H2,23,26,27)(H3,24,25,29)",IWVSYNGKNZFSSA-UHFFFAOYSA-N,P(OCC1OC(N\C(=N\CCCC(N)C(O)=O)\N)C(O)C1O)(OP(OCC1OC(n2c3ncnc(N)c3nc2)C(O)C1O)(O)=O)(O)=O,C13H9Cl3N2O,715.50702,-8.4157,16,515.63,3,668.83832,1,"2-amino-5-[(E)-[amino-[[5-[[[[5-(6-aminopurin-9-yl)-3,4-dihydroxy-tetrahydrofuran-2-yl]methoxy-hydroxy-phosphoryl]oxy-hydroxy-phosphoryl]oxymethyl]-3,4-dihydroxy-tetrahydrofuran-2-yl]amino]methylene]a mino]pentanoic acid"
"InChI=1S/C6H12O4S/c1-11-2-3-4(7)5(8)6(9)10-3/h3-9H,2H2,1H3",OLVVOVIFTBSBBH-UHFFFAOYSA-N,S(CC1OC(O)C(O)C1O)C,C14H12O3,180.224,-1.1110,2,133.75,0,203.2774,0,"5-(methylsulfanylmethyl)tetrahydrofuran-2,3,4-triol"
"InChI=1S/C9H17NO6S/c10-4(8(13)14)1-2-17-3-5-6(11)7(12)9(15)16-5/h4-7,9,11-12,15H,1-3,10H2,(H,13,14)",IQFWYNFDWRYSRA-UHFFFAOYSA-N,S(CC1OC(O)C(O)C1O)CCC(N)C(O)=O,C15H12N2O,267.302,-4.3577,6,195.50,1,271.61935,1,"2-amino-4-[(3,4,5-trihydroxytetrahydrofuran-2-yl)methylsulfanyl]butanoic acid"
"InChI=1S/C9H21N3O/c1-9(13)12-8-4-7-11-6-3-2-5-10/h11H,2-8,10H2,1H3,(H,12,13)",MQTAVJHICJWXBR-UHFFFAOYSA-N,O=C(NCCCNCCCCN)C,C4H4KNO4S,187.287,-0.4380,9,182.50,0,156.04512,1,<I>N</I>-[3-(4-aminobutylamino)propyl]acetamide
"InChI=1S/C10H17N3O2S/c11-8(14)4-2-1-3-7-9-6(5-16-7)12-10(15)13-9/h6-7,9H,1-5H2,(H2,11,14)(H2,12,13,15)",XFLVBMBRLSCJAI-UHFFFAOYSA-N,S1CC2NC(=O)NC2C1CCCCC(=O)N,C7H6O3,243.33099,-0.4150,5,198.25,0,266.49411,0,"5-(2-oxo-1,3,3<I>a</I>,4,6,6<I>a</I>-hexahydrothieno[3,4-d]imidazol-4-yl)pentanamide"
"InChI=1S/C20H26N10O13P2S2/c21-19-26-13-7(15(33)28-19)24-6-12(47)11(46)5(41-17(6)25-13)2-40-45(37,38)43-44(35,36)39-1-4-9(31)10(32)18(42-4)30-3-23-8-14(30)27-20(22)29-16(8)34/h3-6,9-10,17-18,24,31-32,4 6-47H,1-2H2,(H,35,36)(H,37,38)(H3,22,27,29,34)(H4,21,25",VQAGYJCYOLHZDH-UHFFFAOYSA-N,SC=1C(OC2NC=3NC(=NC(=O)C=3NC2C=1S)N)COP(OP(OCC1OC(n2c3NC(=NC(=O)c3nc2)N)C(O)C1O)(O)=O)(O)=O,C7H8N4O2,740.565,-2.6880,9,504.75,3,666.84204,1,"[[2-amino-4-oxo-6,7-bis(sulfanyl)-1,5,5<I>a</I>,8,9<I>a</I>,10-hexahydropyrano[3,2-g]pteridin-8-yl]methoxy-hydroxy-phosphoryl] [5-(2-amino-6-oxo-3<I>H</I>-purin-9-yl)-3,4-dihydroxy-tetrahydrofuran-2-y l]methyl hydrogen phosphate"
"InChI=1S/C5H7NO3/c7-4-2-1-3(6-4)5(8)9/h3H,1-2H2,(H,6,7)(H,8,9)",ODHCTXKNWHHXJC-UHFFFAOYSA-N,O=C1NC(CC1)C(O)=O,C8H10N4O2,129.11499,-0.7790,1,103.38,0,176.05521,0,5-oxopyrrolidine-2-carboxylic acid
"InChI=1S/C5H11N3O2/c6-5(7)8-3-1-2-4(9)10/h1-3H2,(H,9,10)(H4,6,7,8)",TUHVEAJXIMEOSA-UHFFFAOYSA-N,OC(=O)CCCNC(N)=N,C8H14ClN5,145.162,-0.3570,5,124.75,0,235.56105,1,4-guanidinobutanoic acid
"InChI=1S/C8H18N4O2/c1-12(2)8(10)11-5-3-4-6(9)7(13)14/h6H,3-5,9H2,1-2H3,(H2,10,11)(H,13,14)",YDGMGEXADBMOMJ-UHFFFAOYSA-N,OC(=O)C(N)CCC\N=C(\N(C)C)/N,C8H8O3,202.258,-2.9517,6,184.00,0,233.23257,1,2-amino-5-[(E)-[amino(dimethylamino)methylene]amino]pentanoic acid
"InChI=1S/C5H13N3O/c6-3-1-2-4-8-5(7)9/h1-4,6H2,(H3,7,8,9)",YANFYYGANIYHGI-UHFFFAOYSA-N,O=C(NCCCCN)N,C8H9NO2,131.179,-1.2010,5,118.00,0,210.88565,0,4-aminobutylurea
"InChI=1S/C3H7N3O2/c4-1-2(7)6-3(5)8/h1,4H2,(H3,5,6,7,8)",BEDUQUWHWOZQNJ-UHFFFAOYSA-N,O=C(NC(=O)N)CN,C9H10O3,117.108,-2.2340,3,94.88,0,239.25314,1,2-amino-<I>N</I>-carbamoyl-acetamide
"InChI=1S/C3H4N2O/c6-3-1-4-2-5-3/h2H,1H2,(H,4,5,6)",CAAMSDWKXXPUJR-UHFFFAOYSA-N,O=C1N=CNC1,C9H8O2,84.077995,-0.3430,0,74.75,0,161.83681,0,"1,5-dihydroimidazol-4-one"