InChI,Key,smiles,Formula,Weight,logP(o/w),b_rotN,vol,lip_violation,ASA_P,Natural,ChemicalName
"InChI=1S/C11H12O6/c12-7(4-5-9(14)15)6-2-1-3-8(13)10(6)11(16)17/h1-2,8,13H,3-5H2,(H,14,15)(H,16,17)",QAFNUNMMPHBWNT-UHFFFAOYSA-N,OC1CC=CC(C(=O)CCC(O)=O)=C1C(O)=O,C13H10N2O3S,240.211,-0.5520,5,195.38,0,263.68842,1,"2-(3-carboxypropanoyl)-6-hydroxy-cyclohexa-1,3-diene-1-carboxylic acid"
"InChI=1S/C12H22O11/c13-1-4-6(16)8(18)9(19)11(21-4)23-12(3-15)10(20)7(17)5(2-14)22-12/h4-11,13-20H,1-3H2",CZMRCDWAGMRECN-UHFFFAOYSA-N,O1C(OC2OC(CO)C(O)C(O)C2O)(CO)C(O)C(O)C1CO,C13H18O2,342.297,-4.3660,5,238.88,2,330.56909,1,"2-[3,4-dihydroxy-2,5-bis(hydroxymethyl)tetrahydrofuran-2-yl]oxy-6-(hydroxymethyl)tetrahydropyran-3,4,5-triol"
"InChI=1S/C12H23O14P/c13-1-4-6(15)8(17)9(18)11(24-4)26-12(3-14)10(19)7(16)5(25-12)2-23-27(20,21)22/h4-11,13-19H,1-3H2,(H2,20,21,22)",PJTTXANTBQDXME-UHFFFAOYSA-N,P(OCC1OC(OC2OC(CO)C(O)C(O)C2O)(CO)C(O)C1O)(O)(O)=O,C13H9Cl3N2O,422.276,-5.2530,7,275.75,2,380.22488,0,"[3,4-dihydroxy-5-(hydroxymethyl)-5-[3,4,5-trihydroxy-6-(hydroxymethyl)tetrahydropyran-2-yl]oxy-tetrahydrofuran-2-yl]methyl dihydrogen phosphate"
"InChI=1S/H2O4S/c1-5(2,3)4/h(H2,1,2,3,4)/p-2",QAOWNCQODCNURD-UHFFFAOYSA-L,S(=O)(=O)([O-])[O-],C14H12O3,96.061996,-1.2520,0,44.38,0,186.93907,1,sulfate
"InChI=1S/H2O4S/c1-5(2,3)4/h(H2,1,2,3,4)",QAOWNCQODCNURD-UHFFFAOYSA-N,S(O)(O)(=O)=O,C15H12N2O,98.078003,-1.1520,0,44.38,0,204.81169,0,sulfuric acid
InChI=1S/O2S/c1-3-2,RAHZWNYVWXNFOC-UHFFFAOYSA-N,S(=O)=O,C4H4KNO4S,64.064003,-1.0840,0,34.88,0,157.10896,1,sulfur dioxide
"InChI=1S/C50H84O7P2/c1-41(2)21-12-22-42(3)23-13-24-43(4)25-14-26-44(5)27-15-28-45(6)29-16-30-46(7)31-17-32-47(8)33-18-34-48(9)35-19-36-49(10)37-20-38-50(11)39-40-56-59(54,55)57-58(51,52)53/h21,23,25,2 7,29,31,33,35,37,39H,12-20,22,24,26,28,30,32,34,36,38,4",FSCYHDCTHRVSKN-UHFFFAOYSA-N,P(OC\C=C(\CC\C=C(\CC\C=C(\CC\C=C(\CC\C=C(\CC\C=C(\CC\C=C(\CC\C=C(\CC\C=C(\CCC=C(C)C)/C)/C)/C)/C)/C)/C)/C)/C)/C)(OP(O)(O)=O)(O)=O,C7H6O3,859.16296,6.4170,32,838.25,2,296.16571,1,"[(2<I>E</I>,6<I>E</I>,10<I>E</I>,14<I>E</I>,18<I>E</I>,22<I>E</I>,26<I>E</I>,30<I>E</I>,34<I>E</I>)-3,7,11,15,19,23,27,31,35,39-decamethyltetraconta-2,6,10,14,18,22,26,30,34,38-decaenyl] phosphono hyd rogen phosphate"
"InChI=1S/C55H92O7P2/c1-45(2)23-13-24-46(3)25-14-26-47(4)27-15-28-48(5)29-16-30-49(6)31-17-32-50(7)33-18-34-51(8)35-19-36-52(9)37-20-38-53(10)39-21-40-54(11)41-22-42-55(12)43-44-61-64(59,60)62-63(56,57 )58/h23,25,27,29,31,33,35,37,39,41,43H,13-22,24,26,28,3",NTXGVHCCXVHYCL-UHFFFAOYSA-N,P(OC\C=C(\CC\C=C(\CC\C=C(\CC\C=C(\CC\C=C(\CC\C=C(\CC\C=C(\CC\C=C(\CC\C=C(\CC\C=C(\CCC=C(C)C)/C)/C)/C)/C)/C)/C)/C)/C)/C)/C)(OP(O)(O)=O)(O)=O,C7H8N4O2,927.28198,7.2810,35,920.63,2,137.73164,0,"phosphono [(2<I>E</I>,6<I>E</I>,10<I>E</I>,14<I>E</I>,18<I>E</I>,22<I>E</I>,26<I>E</I>,30<I>E</I>,34<I>E</I>,38<I>E</I>)-3,7,11,15,19,23,27,31,35,39,43-undecamethyltetratetraconta-2,6,10,14,18,22,26,3 0,34,38,42-undecaenyl] hydrogen phosphate"
"InChI=1S/C3H4O4/c4-1-2(5)3(6)7/h1-2,5H,(H,6,7)",QWBAFPFNGRFSFB-UHFFFAOYSA-N,OC(C(O)=O)C=O,C8H10N4O2,104.061,-1.0230,2,78.50,0,199.52158,1,2-hydroxy-3-oxo-propanoic acid
"InChI=1S/C2H7NO3S/c3-1-2-7(4,5)6/h1-3H2,(H,4,5,6)",XOAAWQZATWQOTB-UHFFFAOYSA-N,S(O)(=O)(=O)CCN,C8H14ClN5,125.148,-1.7670,2,79.75,0,178.28268,0,2-aminoethanesulfonic acid
"InChI=1S/C10H16N2O11P2/c1-5-3-12(10(15)11-9(5)14)8-2-6(13)7(22-8)4-21-25(19,20)23-24(16,17)18/h3,6-8,13H,2,4H2,1H3,(H,19,20)(H,11,14,15)(H2,16,17,18)",UJLXYODCHAELLY-UHFFFAOYSA-N,P(OCC1OC(N2C=C(C)C(=O)NC2=O)CC1O)(OP(O)(O)=O)(O)=O,C8H8O3,402.189,-3.5580,6,269.00,1,367.58246,1,"[3-hydroxy-5-(5-methyl-2,4-dioxo-pyrimidin-1-yl)tetrahydrofuran-2-yl]methyl phosphono hydrogen phosphate"
"InChI=1S/C9H15N5O3/c1-3(15)6(16)4-2-11-7-5(12-4)8(17)14-9(10)13-7/h3-4,6,12,15-16H,2H2,1H3,(H4,10,11,13,14,17)",FNKQXYHWGSIFBK-UHFFFAOYSA-N,O=C1NC(=NC=2NCC(NC1=2)C(O)C(O)C)N,C8H9NO2,241.25099,-1.9900,2,190.88,1,287.25259,1,"2-amino-6-(1,2-dihydroxypropyl)-5,6,7,8-tetrahydro-3<I>H</I>-pteridin-4-one"
"InChI=1S/C35H62N7O17P3S/c1-4-5-6-7-8-9-10-11-12-13-14-15-26(44)63-19-18-37-25(43)16-17-38-33(47)30(46)35(2,3)21-56-62(53,54)59-61(51,52)55-20-24-29(58-60(48,49)50)28(45)34(57-24)42-23-41-27-31(36)39-2 2-40-32(27)42/h22-24,28-30,34,45-46H,4-21H2,1-3H3,(H,37",DUAFKXOFBZQTQE-UHFFFAOYSA-N,S(C(=O)CCCCCCCCCCCCC)CCNC(=O)CCNC(=O)C(O)C(COP(OP(OCC1OC(n2c3ncnc(N)c3nc2)C(O)C1OP(O)(O)=O)(O)=O)(O)=O)(C)C,C9H10O3,977.901,0.3041,34,750.38,3,657.71991,0,"<I>S</I>-[2-[3-[[4-[[[5-(6-aminopurin-9-yl)-4-hydroxy-3-phosphonooxy-tetrahydrofuran-2-yl]methoxy-hydroxy-phosphoryl]oxy-hydroxy-phosphoryl]oxy-2-hydroxy-3,3-dimethyl-butanoyl]amino]propanoylamino]eth yl] tetradecanethioate"
InChI=1S/C4H8S/c1-2-4-5-3-1/h1-4H2,RAOIDOHSFRTOEL-UHFFFAOYSA-N,S1CCCC1,C9H8O2,88.174004,1.3760,0,77.88,0,68.204079,1,tetrahydrothiophene
InChI=1S/C4H8OS/c5-6-3-1-2-4-6/h1-4H2,ISXOBTBCNRIIQO-UHFFFAOYSA-N,S1(=O)CCCC1,C10H11ClO3,104.173,-0.6110,0,82.75,0,36.989883,0,thiolane 1-oxide
"InChI=1S/C19H23N7O6/c20-19-25-15-14(17(30)26-19)23-11(8-22-15)7-21-10-3-1-9(2-4-10)16(29)24-12(18(31)32)5-6-13(27)28/h1-4,11-12,21,23H,5-8H2,(H,24,29)(H,27,28)(H,31,32)(H4,20,22,25,26,30)",MSTNYGQPCMXVAQ-UHFFFAOYSA-N,O=C1N=C(NC=2NCC(NC1=2)CNc1ccc(cc1)C(=O)NC(CCC(O)=O)C(O)=O)N,C10H11N3O3S,445.436,-0.2940,10,374.38,2,431.54843,1,"2-[[4-[(2-amino-4-oxo-5,6,7,8-tetrahydro-1<I>H</I>-pteridin-6-yl)methylamino]benzoyl]amino]pentanedioic acid"
"InChI=1S/C12H17N4OS/c1-8-11(3-4-17)18-7-16(8)6-10-5-14-9(2)15-12(10)13/h5,7,17H,3-4,6H2,1-2H3,(H2,13,14,15)/q+1",JZRWCGZRTZMZEH-UHFFFAOYSA-N,s1c[n+](Cc2cnc(nc2N)C)c(C)c1CCO,C10H12O3,265.36099,0.4740,4,237.88,0,181.30602,1,2-[3-[(4-amino-2-methyl-pyrimidin-5-yl)methyl]-4-methyl-thiazol-3-ium-5-yl]ethanol
"InChI=1S/C12H17N4O4PS/c1-8-11(3-4-20-21(17,18)19)22-7-16(8)6-10-5-14-9(2)15-12(10)13/h5,7H,3-4,6H2,1-2H3,(H3-,13,14,15,17,18,19)/p+1",HZSAJDVWZRBGIF-UHFFFAOYSA-O,s1c[n+](Cc2cnc(nc2N)C)c(C)c1CCOP(O)(O)=O,C12H7Cl3O2,345.34,-0.4130,6,274.25,0,252.66446,0,2-[3-[(4-amino-2-methyl-pyrimidin-5-yl)methyl]-4-methyl-thiazol-3-ium-5-yl]ethyl dihydrogen phosphate
"InChI=1S/C12H18N4O7P2S/c1-8-11(3-4-22-25(20,21)23-24(17,18)19)26-7-16(8)6-10-5-14-9(2)15-12(10)13/h5,7H,3-4,6H2,1-2H3,(H4-,13,14,15,17,18,19,20,21)/p+1",AYEKOFBPNLCAJY-UHFFFAOYSA-O,s1c[n+](Cc2cnc(nc2N)C)c(C)c1CCOP(OP(O)(O)=O)(O)=O,C13H10N2O3S,425.319,-1.2950,8,304.50,1,339.77274,1,2-[3-[(4-amino-2-methyl-pyrimidin-5-yl)methyl]-4-methyl-thiazol-3-ium-5-yl]ethyl phosphono hydrogen phosphate
"InChI=1S/C2H4O2S/c3-2(4)1-5/h5H,1H2,(H,3,4)",CWERGRDVMFNCDR-UHFFFAOYSA-N,SCC(O)=O,C13H18O2,92.118004,0.2460,1,67.13,0,170.50816,0,2-sulfanylacetic acid
"InChI=1S/C10H14N2O5/c1-5-3-12(10(16)11-9(5)15)8-2-6(14)7(4-13)17-8/h3,6-8,13-14H,2,4H2,1H3,(H,11,15,16)",IQFYYKKMVGJFEH-UHFFFAOYSA-N,O1C(CO)C(O)CC1N1C=C(C)C(=O)NC1=O,C13H9Cl3N2O,242.23099,-1.7890,2,199.75,0,211.88644,1,"1-[4-hydroxy-5-(hydroxymethyl)tetrahydrofuran-2-yl]-5-methyl-pyrimidine-2,4-dione"
"InChI=1S/C5H6N2O2/c1-3-2-6-5(9)7-4(3)8/h2H,1H3,(H2,6,7,8,9)",RWQNBRDOKXIBIV-UHFFFAOYSA-N,O=C1NC(=O)NC=C1C,C14H12O3,126.115,-1.0460,0,110.88,0,159.82191,1,"5-methyl-1<I>H</I>-pyrimidine-2,4-dione"
"InChI=1S/C6H9NOS/c1-5-6(2-3-8)9-4-7-5/h4,8H,2-3H2,1H3",BKAWJIRCKVUVED-UHFFFAOYSA-N,s1cnc(C)c1CCO,C15H12N2O,143.21001,0.0600,2,125.00,0,107.91879,0,2-(4-methylthiazol-5-yl)ethanol
"InChI=1S/C6H10NO4PS/c1-5-6(13-4-7-5)2-3-11-12(8,9)10/h4H,2-3H2,1H3,(H2,8,9,10)",OCYMERZCMYJQQO-UHFFFAOYSA-N,s1cnc(C)c1CCOP(O)(O)=O,C4H4KNO4S,223.189,-0.8270,4,157.38,0,195.25632,1,2-(4-methylthiazol-5-yl)ethyl dihydrogen phosphate
"InChI=1S/C26H42N7O17P3S/c1-5-14(2)25(38)54-9-8-28-16(34)6-7-29-23(37)20(36)26(3,4)11-47-53(44,45)50-52(42,43)46-10-15-19(49-51(39,40)41)18(35)24(48-15)33-13-32-17-21(27)30-12-31-22(17)33/h5,12-13,15,1 8-20,24,35-36H,6-11H2,1-4H3,(H,28,34)(H,29,37)(H,42,43)",PMWATMXOQQZNBX-UHFFFAOYSA-N,S(C(=O)C(=CC)C)CCNC(=O)CCNC(=O)C(O)C(COP(OP(OCC1OC(n2c3ncnc(N)c3nc2)C(O)C1OP(O)(O)=O)(O)=O)(O)=O)(C)C,C7H6O3,849.64197,-4.3449,23,611.25,3,608.34802,0,"<I>S</I>-[2-[3-[[4-[[[5-(6-aminopurin-9-yl)-4-hydroxy-3-phosphonooxy-tetrahydrofuran-2-yl]methoxy-hydroxy-phosphoryl]oxy-hydroxy-phosphoryl]oxy-2-hydroxy-3,3-dimethyl-butanoyl]amino]propanoylamino]eth yl] (<I>E</I>)-2-methylbut-2-enethioate"
"InChI=1S/C10H15N2O8P/c1-5-3-12(10(15)11-9(5)14)8-2-6(13)7(20-8)4-19-21(16,17)18/h3,6-8,13H,2,4H2,1H3,(H,11,14,15)(H2,16,17,18)",GYOZYWVXFNDGLU-UHFFFAOYSA-N,P(OCC1OC(N2C=C(C)C(=O)NC2=O)CC1O)(O)(O)=O,C7H8N4O2,322.20999,-2.6760,4,234.50,0,287.5441,1,"[3-hydroxy-5-(5-methyl-2,4-dioxo-pyrimidin-1-yl)tetrahydrofuran-2-yl]methyl dihydrogen phosphate"
"InChI=1S/C7H8/c1-7-5-3-2-4-6-7/h2-6H,1H3",YXFVVABEGXRONW-UHFFFAOYSA-N,c1ccccc1C,C8H10N4O2,92.140999,2.3749,0,109.13,0,0,1,toluene
"InChI=1S/C7H10O2/c1-5-3-2-4-6(8)7(5)9/h2-4,6-9H,1H3",FTZZKLFGNQOODA-UHFFFAOYSA-N,OC1C(=CC=CC1O)C,C8H14ClN5,126.155,0.1240,0,118.75,0,101.27887,0,"3-methylcyclohexa-3,5-diene-1,2-diol"
"InChI=1S/C27H42N7O19P3S/c1-14(8-17(36)37)9-18(38)57-7-6-29-16(35)4-5-30-25(41)22(40)27(2,3)11-50-56(47,48)53-55(45,46)49-10-15-21(52-54(42,43)44)20(39)26(51-15)34-13-33-19-23(28)31-12-32-24(19)34/h9,1 2-13,15,20-22,26,39-40H,4-8,10-11H2,1-3H3,(H,29,35)(H,3",GXKSHRDAHFLWPN-UHFFFAOYSA-N,S(C(=O)C=C(CC(O)=O)C)CCNC(=O)CCNC(=O)C(O)C(COP(OP(OCC1OC(n2c3ncnc(N)c3nc2)C(O)C1OP(O)(O)=O)(O)=O)(O)=O)(C)C,C8H8O3,893.651,-4.8779,25,636.13,3,655.67188,1,"(<I>Z</I>)-5-[2-[3-[[4-[[[5-(6-aminopurin-9-yl)-4-hydroxy-3-phosphonooxy-tetrahydrofuran-2-yl]methoxy-hydroxy-phosphoryl]oxy-hydroxy-phosphoryl]oxy-2-hydroxy-3,3-dimethyl-butanoyl]amino]propanoylamino ]ethylsulfanyl]-3-methyl-5-oxo-pent-3-enoic acid"
"InChI=1S/C12H22O11/c13-1-3-5(15)7(17)9(19)11(21-3)23-12-10(20)8(18)6(16)4(2-14)22-12/h3-20H,1-2H2",HDTRYLNUVZCQOY-UHFFFAOYSA-N,O1C(CO)C(O)C(O)C(O)C1OC1OC(CO)C(O)C(O)C1O,C8H9NO2,342.297,-4.8480,4,243.25,2,300.202,0,"2-(hydroxymethyl)-6-[3,4,5-trihydroxy-6-(hydroxymethyl)tetrahydropyran-2-yl]oxy-tetrahydropyran-3,4,5-triol"
"InChI=1S/C12H23O14P/c13-1-3-5(14)7(16)9(18)11(24-3)26-12-10(19)8(17)6(15)4(25-12)2-23-27(20,21)22/h3-19H,1-2H2,(H2,20,21,22)",LABSPYBHMPDTEL-UHFFFAOYSA-N,P(OCC1OC(OC2OC(CO)C(O)C(O)C2O)C(O)C(O)C1O)(O)(O)=O,C9H10O3,422.276,-5.7350,6,282.25,2,434.90942,1,"[3,4,5-trihydroxy-6-[3,4,5-trihydroxy-6-(hydroxymethyl)tetrahydropyran-2-yl]oxy-tetrahydropyran-2-yl]methyl dihydrogen phosphate"
"InChI=1S/C3H9NO/c1-4(2,3)5/h1-3H3",UYPYRKYUKCHHIB-UHFFFAOYSA-N,[O-][N+](C)(C)C,C9H8O2,75.111,0.0190,0,70.50,0,95.723297,1,"<I>N</I>,<I>N</I>-dimethylmethanamine oxide"
InChI=1S/C3H9N/c1-4(2)3/h1-3H3,GETQZCLCWQTVFV-UHFFFAOYSA-N,N(C)(C)C,C10H11ClO3,59.112,0.1670,0,71.25,0,70.64296,0,"<I>N</I>,<I>N</I>-dimethylmethanamine"
InChI=1S/C3H9S/c1-4(2)3/h1-3H3/q+1,NRZWQKGABZFFKE-UHFFFAOYSA-N,[S+](C)(C)C,C10H11N3O3S,77.170998,-0.1310,0,72.75,0,17.844284,1,trimethylsulfonium
"InChI=1S/C11H12N2O2/c12-9(11(14)15)5-7-6-13-10-4-2-1-3-8(7)10/h1-4,6,9,13H,5,12H2,(H,14,15)",QIVBCDIJIAJPQS-UHFFFAOYSA-N,OC(=O)C(N)Cc1c2c([nH]c1)cccc2,C10H12O3,204.22899,-1.3217,3,189.13,0,183.07771,0,2-amino-3-(1H-indol-3-yl)propanoic acid
"InChI=1S/C27H49N9O10S2/c28-16(26(43)44)4-6-20(37)35-18(14-47)24(41)33-12-22(39)31-10-2-1-8-30-9-3-11-32-23(40)13-34-25(42)19(15-48)36-21(38)7-5-17(29)27(45)46/h16-19,30,47-48H,1-15,28-29H2,(H,31,39)(H ,32,40)(H,33,41)(H,34,42)(H,35,37)(H,36,38)(H,43,44)(H,",PHDOXVGRXXAYEB-UHFFFAOYSA-N,SCC(NC(=O)CCC(N)C(O)=O)C(=O)NCC(=O)NCCCCNCCCNC(=O)CNC(=O)C(NC(=O)CCC(N)C(O)=O)CS,C12H7Cl3O2,723.87396,-6.7877,33,596.50,3,655.89703,1,2-amino-5-[[2-[[2-[4-[3-[[2-[[2-[(4-amino-4-carboxy-butanoyl)amino]-3-sulfanyl-propanoyl]amino]acetyl]amino]propylamino]butylamino]-2-oxo-ethyl]amino]-2-oxo-1-(sulfanylmethyl)ethyl]amino]-5-oxo-pentan oic acid
"InChI=1S/C10H12N2/c11-6-5-8-7-12-10-4-2-1-3-9(8)10/h1-4,7,12H,5-6,11H2",APJYDQYYACXCRM-UHFFFAOYSA-N,[nH]1cc(c2c1cccc2)CCN,C13H10N2O3S,160.22,1.4510,2,164.25,0,119.22491,1,2-(1H-indol-3-yl)ethanamine
"InChI=1S/C10H17N2O14P3/c1-5-3-12(10(15)11-9(5)14)8-2-6(13)7(24-8)4-23-28(19,20)26-29(21,22)25-27(16,17)18/h3,6-8,13H,2,4H2,1H3,(H,19,20)(H,21,22)(H,11,14,15)(H2,16,17,18)",NHVNXKFIZYSCEB-UHFFFAOYSA-N,P(OCC1OC(N2C=C(C)C(=O)NC2=O)CC1O)(OP(OP(O)(O)=O)(O)=O)(O)=O,C13H18O2,482.168,-4.4400,8,301.88,2,426.83661,0,"[hydroxy-[[3-hydroxy-5-(5-methyl-2,4-dioxo-pyrimidin-1-yl)tetrahydrofuran-2-yl]methoxy]phosphoryl] phosphono hydrogen phosphate"
InChI=1S/2H2O.2O.W/h2*1H2;;;/q;;;;+2/p-2,CMPGARWFYBADJI-UHFFFAOYSA-L,[W-2]([OH2+])([OH2+])(O)O,C13H9Cl3N2O,253.98499,-1.3580,0,42.38,1,249.76241,1,dihydroxy(dioxonio)tungsten(2-)
"InChI=1S/C9H11NO3/c10-8(9(12)13)5-6-1-3-7(11)4-2-6/h1-4,8,11H,5,10H2,(H,12,13)",OUYCCCASQSFEME-UHFFFAOYSA-N,Oc1ccc(cc1)CC(N)C(O)=O,C14H12O3,181.19099,-1.8307,3,159.13,0,186.16472,0,2-amino-3-(4-hydroxyphenyl)propanoic acid
"InChI=1S/C59H94O4/c1-44(2)24-15-25-45(3)26-16-27-46(4)28-17-29-47(5)30-18-31-48(6)32-19-33-49(7)34-20-35-50(8)36-21-37-51(9)38-22-39-52(10)40-23-41-53(11)42-43-55-54(12)56(60)58(62-13)59(63-14)57(55)6 1/h24,26,28,30,32,34,36,38,40,42,56-57,60-61H,15-23,25,",GNZHTGOWPPDWPN-UHFFFAOYSA-N,O(C)C=1C(O)C(CC=C(CCC=C(CCC=C(CCC=C(CCC=C(CCC=C(CCC=C(CCC=C(CCC=C(CCC=C(C)C)C)C)C)C)C)C)C)C)C)=C(C)C(O)C=1OC,C15H12N2O,867.39697,8.6717,31,911.38,2,203.46515,1,"2-[(2<I>E</I>,6<I>E</I>,10<I>E</I>,14<I>E</I>,18<I>E</I>,22<I>Z</I>,26<I>Z</I>,30<I>E</I>,34<I>E</I>)-3,7,11,15,19,23,27,31,35,39-decamethyltetraconta-2,6,10,14,18,22,26,30,34,38-decaenyl]-5,6-dimetho xy-3-methyl-cyclohexa-2,5-diene-1,4-diol"
"InChI=1S/C49H78O4/c1-36(2)20-13-21-37(3)22-14-23-38(4)24-15-25-39(5)26-16-27-40(6)28-17-29-41(7)30-18-31-42(8)32-19-33-43(9)34-35-45-44(10)46(50)48(52-11)49(53-12)47(45)51/h20,22,24,26,28,30,32,34,46- 47,50-51H,13-19,21,23,25,27,29,31,33,35H2,1-12H3",FLVUMORHBJZINO-UHFFFAOYSA-N,O(C)C=1C(O)C(CC=C(CCC=C(CCC=C(CCC=C(CCC=C(CCC=C(CCC=C(CCC=C(C)C)C)C)C)C)C)C)C)=C(C)C(O)C=1OC,C4H4KNO4S,731.159,6.9437,25,768.63,2,185.59811,1,"2,3-dimethoxy-5-methyl-6-[(2<I>E</I>,6<I>E</I>,10<I>E</I>,14<I>E</I>,18<I>E</I>,22<I>E</I>,26<I>E</I>)-3,7,11,15,19,23,27,31-octamethyldotriaconta-2,6,10,14,18,22,26,30-octaenyl]cyclohexa-2,5-diene-1, 4-diol"
"InChI=1S/C59H90O4/c1-44(2)24-15-25-45(3)26-16-27-46(4)28-17-29-47(5)30-18-31-48(6)32-19-33-49(7)34-20-35-50(8)36-21-37-51(9)38-22-39-52(10)40-23-41-53(11)42-43-55-54(12)56(60)58(62-13)59(63-14)57(55)6 1/h24,26,28,30,32,34,36,38,40,42H,15-23,25,27,29,31,33,",ACTIUHUUMQJHFO-UHFFFAOYSA-N,O(C)C=1C(=O)C(C\C=C(\CC\C=C(\CC\C=C(\CC\C=C(\CC\C=C(\CC\C=C(\CC\C=C(\CC\C=C(\CC\C=C(\CCC=C(C)C)/C)/C)/C)/C)/C)/C)/C)/C)/C)=C(C)C(=O)C=1OC,C7H6O3,863.36499,8.9277,31,921.75,2,219.53532,0,"2-[(2<I>E</I>,6<I>E</I>,10<I>E</I>,14<I>E</I>,18<I>E</I>,22<I>E</I>,26<I>E</I>,30<I>E</I>,34<I>E</I>)-3,7,11,15,19,23,27,31,35,39-decamethyltetraconta-2,6,10,14,18,22,26,30,34,38-decaenyl]-5,6-dimetho xy-3-methyl-1,4-benzoquinone"
"InChI=1S/C49H74O4/c1-36(2)20-13-21-37(3)22-14-23-38(4)24-15-25-39(5)26-16-27-40(6)28-17-29-41(7)30-18-31-42(8)32-19-33-43(9)34-35-45-44(10)46(50)48(52-11)49(53-12)47(45)51/h20,22,24,26,28,30,32,34H,13 -19,21,23,25,27,29,31,33,35H2,1-12H3",ICFIZJQGJAJRSU-UHFFFAOYSA-N,O(C)C=1C(=O)C(CC=C(CCC=C(CCC=C(CCC=C(CCC=C(CCC=C(CCC=C(CCC=C(C)C)C)C)C)C)C)C)C)=C(C)C(=O)C=1OC,C7H8N4O2,727.12695,7.1997,25,768.63,2,165.35722,1,"2,3-dimethoxy-5-methyl-6-[(2<I>E</I>,6<I>E</I>,10<I>E</I>,14<I>E</I>,18<I>E</I>,22<I>E</I>,26<I>E</I>)-3,7,11,15,19,23,27,31-octamethyldotriaconta-2,6,10,14,18,22,26,30-octaenyl]-1,4-benzoquinone"
"InChI=1S/C9H14N2O12P2/c12-5-1-2-11(9(15)10-5)8-7(14)6(13)4(22-8)3-21-25(19,20)23-24(16,17)18/h1-2,4,6-8,13-14H,3H2,(H,19,20)(H,10,12,15)(H2,16,17,18)",XCCTYIAWTASOJW-UHFFFAOYSA-N,P(OCC1OC(N2C=CC(=O)NC2=O)C(O)C1O)(OP(O)(O)=O)(O)=O,C8H10N4O2,404.16098,-4.6170,6,257.00,2,437.81705,0,"[5-(2,4-dioxopyrimidin-1-yl)-3,4-dihydroxy-tetrahydrofuran-2-yl]methyl phosphono hydrogen phosphate"
"InChI=1S/C28H43N5O23P2/c1-10(23(42)31-13(26(44)45)4-5-17(37)38)29-24(43)11(2)52-22-18(30-12(3)35)27(54-14(8-34)20(22)40)55-58(49,50)56-57(47,48)51-9-15-19(39)21(41)25(53-15)33-7-6-16(36)32-28(33)46/h6 -7,10-11,13-15,18-22,25,27,34,39-41H,4-5,8-9H2,1-3H3,(H",OJZCATPXPWFLHF-UHFFFAOYSA-N,P(OC1OC(CO)C(O)C(OC(C(=O)NC(C(=O)NC(CCC(O)=O)C(O)=O)C)C)C1NC(=O)C)(OP(OCC1OC(N2C=CC(=O)NC2=O)C(O)C1O)(O)=O)(O)=O,C8H14ClN5,879.612,-7.3040,23,623.00,3,648.31433,1,"2-[2-[2-[3-acetamido-2-[[[5-(2,4-dioxopyrimidin-1-yl)-3,4-dihydroxy-tetrahydrofuran-2-yl]methoxy-hydroxy-phosphoryl]oxy-hydroxy-phosphoryl]oxy-5-hydroxy-6-(hydroxymethyl)tetrahydropyran-4-yl]oxypropan oylamino]propanoylamino]pentanedioic acid"
"InChI=1S/C35H55N7O26P2/c1-13(28(50)40-18(33(56)57)7-8-21(45)39-17(32(54)55)6-4-5-16(36)31(52)53)37-29(51)14(2)64-27-23(38-15(3)44)34(66-19(11-43)25(27)48)67-70(61,62)68-69(59,60)63-12-20-24(47)26(49)3 0(65-20)42-10-9-22(46)41-35(42)58/h9-10,13-14,16-20,23-",QUHLBZKCGUXHGP-UHFFFAOYSA-N,P(OC1OC(CO)C(O)C(OC(C(=O)NC(C(=O)NC(CCC(=O)NC(CCCC(N)C(O)=O)C(O)=O)C(O)=O)C)C)C1NC(=O)C)(OP(OCC1OC(N2C=CC(=O)NC2=O)C(O)C1O)(O)=O)(O)=O,C8H8O3,1051.796,-10.4187,31,762.88,3,756.30334,1,"2-[[4-[2-[2-[3-acetamido-2-[[[5-(2,4-dioxopyrimidin-1-yl)-3,4-dihydroxy-tetrahydrofuran-2-yl]methoxy-hydroxy-phosphoryl]oxy-hydroxy-phosphoryl]oxy-5-hydroxy-6-(hydroxymethyl)tetrahydropyran-4-yl]oxypr opanoylamino]propanoylamino]-4-carboxy-butanoyl]amino]-6-amino-heptanedioic acid"
"InChI=1S/C20H29N3O19P2/c1-7(18(30)31)38-16-12(21-8(2)25)19(40-9(5-24)14(16)28)41-44(35,36)42-43(33,34)37-6-10-13(27)15(29)17(39-10)23-4-3-11(26)22-20(23)32/h3-4,9-10,12-17,19,24,27-29H,1,5-6H2,2H3,(H, 21,25)(H,30,31)(H,33,34)(H,35,36)(H,22,26,32)",BEGZZYPUNCJHKP-UHFFFAOYSA-N,P(OC1OC(CO)C(O)C(OC(C(O)=O)=C)C1NC(=O)C)(OP(OCC1OC(N2C=CC(=O)NC2=O)C(O)C1O)(O)=O)(O)=O,C8H9NO2,677.40198,-5.8590,14,465.38,3,525.76807,0,"2-[3-acetamido-2-[[[5-(2,4-dioxopyrimidin-1-yl)-3,4-dihydroxy-tetrahydrofuran-2-yl]methoxy-hydroxy-phosphoryl]oxy-hydroxy-phosphoryl]oxy-5-hydroxy-6-(hydroxymethyl)tetrahydropyran-4-yl]oxyprop-2-enoic  acid"
"InChI=1S/C23H36N4O20P2/c1-8(21(35)36)24-19(34)9(2)43-18-14(25-10(3)29)22(45-11(6-28)16(18)32)46-49(40,41)47-48(38,39)42-7-12-15(31)17(33)20(44-12)27-5-4-13(30)26-23(27)37/h4-5,8-9,11-12,14-18,20,22,28 ,31-33H,6-7H2,1-3H3,(H,24,34)(H,25,29)(H,35,36)(H,38,39",NTMMCWJNQNKACG-UHFFFAOYSA-N,P(OC1OC(CO)C(O)C(OC(C(=O)NC(C(O)=O)C)C)C1NC(=O)C)(OP(OCC1OC(N2C=CC(=O)NC2=O)C(O)C1O)(O)=O)(O)=O,C9H10O3,750.49701,-6.5870,17,527.00,3,497.22467,1,"2-[2-[3-acetamido-2-[[[5-(2,4-dioxopyrimidin-1-yl)-3,4-dihydroxy-tetrahydrofuran-2-yl]methoxy-hydroxy-phosphoryl]oxy-hydroxy-phosphoryl]oxy-5-hydroxy-6-(hydroxymethyl)tetrahydropyran-4-yl]oxypropanoyl amino]propanoic acid"
"InChI=1S/C15H24N2O17P2/c18-3-5(19)12-9(22)11(24)14(32-12)33-36(28,29)34-35(26,27)30-4-6-8(21)10(23)13(31-6)17-2-1-7(20)16-15(17)25/h1-2,5-6,8-14,18-19,21-24H,3-4H2,(H,26,27)(H,28,29)(H,16,20,25)",ZQLQOXLUCGXKHS-UHFFFAOYSA-N,P(OC1OC(C(O)CO)C(O)C1O)(OP(OCC1OC(N2C=CC(=O)NC2=O)C(O)C1O)(O)=O)(O)=O,C9H8O2,566.302,-6.7020,10,372.25,3,499.98157,0,"[5-(1,2-dihydroxyethyl)-3,4-dihydroxy-tetrahydrofuran-2-yl] [[5-(2,4-dioxopyrimidin-1-yl)-3,4-dihydroxy-tetrahydrofuran-2-yl]methoxy-hydroxy-phosphoryl] hydrogen phosphate"
"InChI=1S/C14H22N2O16P2/c17-5-3-28-13(11(22)8(5)19)31-34(26,27)32-33(24,25)29-4-6-9(20)10(21)12(30-6)16-2-1-7(18)15-14(16)23/h1-2,5-6,8-13,17,19-22H,3-4H2,(H,24,25)(H,26,27)(H,15,18,23)",DQQDLYVHOTZLOR-UHFFFAOYSA-N,P(OC1OCC(O)C(O)C1O)(OP(OCC1OC(N2C=CC(=O)NC2=O)C(O)C1O)(O)=O)(O)=O,C10H11ClO3,536.276,-6.1290,8,352.25,3,459.53516,1,"[[5-(2,4-dioxopyrimidin-1-yl)-3,4-dihydroxy-tetrahydrofuran-2-yl]methoxy-hydroxy-phosphoryl] (3,4,5-trihydroxytetrahydropyran-2-yl) hydrogen phosphate"
"InChI=1S/C15H24N2O17P2/c18-3-5-8(20)10(22)12(24)14(32-5)33-36(28,29)34-35(26,27)30-4-6-9(21)11(23)13(31-6)17-2-1-7(19)16-15(17)25/h1-2,5-6,8-14,18,20-24H,3-4H2,(H,26,27)(H,28,29)(H,16,19,25)",HSCJRCZFDFQWRP-UHFFFAOYSA-N,P(OC1OC(CO)C(O)C(O)C1O)(OP(OCC1OC(N2C=CC(=O)NC2=O)C(O)C1O)(O)=O)(O)=O,C10H11N3O3S,566.302,-6.7020,9,372.75,3,468.23376,1,"[[5-(2,4-dioxopyrimidin-1-yl)-3,4-dihydroxy-tetrahydrofuran-2-yl]methoxy-hydroxy-phosphoryl] [3,4,5-trihydroxy-6-(hydroxymethyl)tetrahydropyran-2-yl] hydrogen phosphate"