InChI,Key,smiles,Formula,Weight,logP(o/w),b_rotN,vol,lip_violation,ASA_P,Natural,ChemicalName
"InChI=1S/C6H15NS/c1-2-3-4-7-5-6-8/h7-8H,2-6H2,1H3",OUMFAUYLXGTBCX-UHFFFAOYSA-N,SCCNCCCC,C13H18O2,133.259,1.7470,5,129.00,0,89.215858,1,2-(butylamino)ethanethiol
"InChI=1S/C10H9NO5S2/c12-7(10(15)16)11-8-6(9(13)14)4-1-2-17-3-5(4)18-8/h1-3H2,(H,11,12)(H,13,14)(H,15,16)",ZPDVRWNOCOREGF-UHFFFAOYSA-N,s1c2c(CCSC2)c(C(O)=O)c1NC(=O)C(O)=O,C13H9Cl3N2O,287.31601,0.6230,4,209.88,0,281.04727,0,"2-(oxaloamino)-5,7-dihydro-4<I>H</I>-thieno[2,3-c]thiopyran-3-carboxylic acid"
"InChI=1S/C11H11N5O/c17-6-4-12-10-9-11(14-7-13-10)16-5-2-1-3-8(16)15-9/h1-3,5,7,17H,4,6H2,(H,12,13,14)",QBILBVYKWQWDQJ-UHFFFAOYSA-N,OCCNc1ncnc2n3c(nc12)C=CC=C3,C14H12O3,229.243,-0.0169,3,213.50,0,159.61467,1,"2-(purino[9,8-a]pyridin-4-ylamino)ethanol"
"InChI=1S/C13H19N2O9P/c1-7-11(18)9(8(4-14-7)6-24-25(21,22)23)5-15-13(2,12(19)20)3-10(16)17/h4,15,18H,3,5-6H2,1-2H3,(H,16,17)(H,19,20)(H2,21,22,23)",ZFKRUCNEKPIDBK-UHFFFAOYSA-N,P(OCc1cnc(C)c(O)c1CNC(CC(O)=O)(C(O)=O)C)(O)(O)=O,C15H12N2O,378.27399,-1.3840,9,277.25,2,281.10547,1,2-[[3-hydroxy-2-methyl-5-(phosphonooxymethyl)-4-pyridyl]methylamino]-2-methyl-butanedioic acid
"InChI=1S/C23H29BrN6O5S/c24-17-7-9-18(10-8-17)36(34,35)13-12-28-22(32)29-11-1-2-19(30(29)23(28)33)21(31)27-14-15-3-5-16(6-4-15)20(25)26/h1-2,7-10,15-16,19H,3-6,11-14H2,(H3,25,26)(H,27,31)",CAGDDDRYEVLPOJ-UHFFFAOYSA-N,Brc1ccc(S(=O)(=O)CCN2C(=O)N3N(CC=CC3C(=O)NCC3CCC(CC3)C(N)=N)C2=O)cc1,C4H4KNO4S,581.492,1.4600,9,452.63,2,297.39581,0,"2-[2-(4-bromophenyl)sulfonylethyl]-<I>N</I>-[(4-carbamimidoylcyclohexyl)methyl]-1,3-dioxo-5,8-dihydro-[1,2,4]triazolo[1,2-a]pyridazine-5-carboxamide"
"InChI=1S/C23H30F2N6O5S/c1-14(2)18(19(33)23(24,25)22(35)27-5-6-30-7-9-36-10-8-30)29-17(32)13-31-20(16-4-3-11-37-16)28-12-15(26)21(31)34/h3-4,11-12,14,18H,5-10,13,26H2,1-2H3,(H,27,35)(H,29,32)",SZYHELVLDPKTOS-UHFFFAOYSA-N,s1cccc1C1=NC=C(N)C(=O)N1CC(=O)NC(C(C)C)C(=O)C(F)(F)C(=O)NCCN1CCOCC1,C7H6O3,540.59198,-0.1831,13,436.00,2,284.41214,1,"4-[[2-[5-amino-6-oxo-2-(2-thienyl)pyrimidin-1-yl]acetyl]amino]-2,2-difluoro-5-methyl-<I>N</I>-(2-morpholinoethyl)-3-oxo-hexanamide"
"InChI=1S/C19H22F3N5O5S/c1-10(2)15(16(29)19(20,21)22)25-14(28)9-27-17(11-4-6-12(23)7-5-11)24-8-13(18(27)30)26-33(3,31)32/h4-8,10,15,26H,9,23H2,1-3H3,(H,25,28)",JWSWTHSJMGVOKE-UHFFFAOYSA-N,S(=O)(=O)(NC1=CN=C(N(CC(=O)NC(C(C)C)C(=O)C(F)(F)F)C1=O)c1ccc(N)cc1)C,C7H8N4O2,489.47501,0.5568,10,373.50,0,322.80048,0,"2-[2-(4-aminophenyl)-5-(methanesulfonamido)-6-oxo-pyrimidin-1-yl]-<I>N</I>-(3,3,3-trifluoro-1-isopropyl-2-oxo-propyl)acetamide"
"InChI=1S/C8H16N2O4/c1-4(11)9-2-5-7(13)8(14)6(12)3-10-5/h5-8,10,12-14H,2-3H2,1H3,(H,9,11)",CHPVVUHEWNQOBM-UHFFFAOYSA-N,OC1C(O)C(O)CNC1CNC(=O)C,C8H10N4O2,204.226,-2.7980,3,165.00,0,211.26059,1,"<I>N</I>-[(3,4,5-trihydroxy-2-piperidyl)methyl]acetamide"
"InChI=1S/C14H25NO11/c1-5(18)15-6(2-16)9(20)10(21)7(19)4-25-14-13(24)12(23)11(22)8(3-17)26-14/h2,6-14,17,19-24H,3-4H2,1H3,(H,15,18)",FGYNENQLWILFLQ-UHFFFAOYSA-N,O1C(CO)C(O)C(O)C(O)C1OCC(O)C(O)C(O)C(NC(=O)C)C=O,C8H14ClN5,383.35001,-4.9100,10,290.63,2,357.51309,1,"<I>N</I>-[1-formyl-2,3,4-trihydroxy-5-[3,4,5-trihydroxy-6-(hydroxymethyl)tetrahydropyran-2-yl]oxy-pentyl]acetamide"
"InChI=1S/C14H25NO11/c1-4(18)15-7-12(9(20)6(3-17)24-13(7)23)26-14-11(22)10(21)8(19)5(2-16)25-14/h5-14,16-17,19-23H,2-3H2,1H3,(H,15,18)",HMQPEDMEOBLSQB-UHFFFAOYSA-N,O1C(CO)C(O)C(OC2OC(CO)C(O)C(O)C2O)C(NC(=O)C)C1O,C8H8O3,383.35001,-4.9010,6,278.63,2,316.02451,0,"<I>N</I>-[2,5-dihydroxy-6-(hydroxymethyl)-4-[3,4,5-trihydroxy-6-(hydroxymethyl)tetrahydropyran-2-yl]oxy-tetrahydropyran-3-yl]acetamide"
"InChI=1S/C13H12N4/c1-17-11-7-10(9-5-3-2-4-6-9)8-15-12(11)16-13(17)14/h2-8H,1H3,(H2,14,15,16)",UQVKZNNCIHJZLS-UHFFFAOYSA-N,n1c2ncc(cc2n(C)c1N)-c1ccccc1,C8H9NO2,224.267,2.5445,1,220.50,0,147.02739,1,"1-methyl-6-phenyl-imidazo[4,5-b]pyridin-2-amine"
"InChI=1S/C4H11NO2/c1-4(5,2-6)3-7/h6-7H,2-3,5H2,1H3",UXFQFBNBSPQBJW-UHFFFAOYSA-N,OCC(N)(CO)C,C9H10O3,105.137,-1.4860,2,86.25,0,145.22548,0,"2-amino-2-methyl-propane-1,3-diol"
"InChI=1S/C5H7N3O/c1-3-2-4(9)8-5(6)7-3/h2H,1H3,(H3,6,7,8,9)",KWXIPEYKZKIAKR-UHFFFAOYSA-N,Oc1nc(nc(c1)C)N,C9H8O2,125.131,-0.3820,0,113.63,0,170.75842,1,2-amino-6-methyl-pyrimidin-4-ol
"InChI=1S/C6H8N2/c1-5-2-3-8-6(7)4-5/h2-4H,1H3,(H2,7,8)",ORLGLBZRQYOWNA-UHFFFAOYSA-N,n1ccc(cc1N)C,C10H11ClO3,108.144,0.7420,0,111.38,0,92.772331,1,4-methylpyridin-2-amine
"InChI=1S/C5H10N2S/c1-4-2-3-7-5(6)8-4/h4H,2-3H2,1H3,(H2,6,7)",BATVOUKHGLKDGQ-UHFFFAOYSA-N,S1C(CCN=C1N)C,C10H11N3O3S,130.215,1.2540,0,111.38,0,135.75977,0,"6-methyl-5,6-dihydro-4<I>H</I>-1,3-thiazin-2-amine"
"InChI=1S/C9H7N3O4S2/c10-9-11-5-8(17-9)18(15,16)7-3-1-6(2-4-7)12(13)14/h1-5H,(H2,10,11)",GKTKCGAOXFHFTD-UHFFFAOYSA-N,s1c(S(=O)(=O)c2ccc([N+](=O)[O-])cc2)cnc1N,C10H12O3,285.30399,1.2130,3,207.75,0,244.914,1,5-(4-nitrophenyl)sulfonylthiazol-2-amine
"InChI=1S/C15H14N2O2S/c1-10-6-11(2)8-12(7-10)20(18,19)15-5-3-4-14(17)13(15)9-16/h3-8H,17H2,1-2H3",SWGDXLAZBZDUBR-UHFFFAOYSA-N,S(=O)(=O)(c1cccc(N)c1C#N)c1cc(cc(c1)C)C,C12H7Cl3O2,286.35501,2.4490,3,254.13,0,155.40251,0,"2-amino-6-(3,5-dimethylphenyl)sulfonyl-benzonitrile"
"InChI=1S/C12H18N2O4S/c1-12(17-7-8-18-12)9-14(2)19(15,16)11-6-4-3-5-10(11)13/h3-6H,7-9,13H2,1-2H3",BOKFQBCWYCCRIG-UHFFFAOYSA-N,S(=O)(=O)(N(CC1(OCCO1)C)C)c1ccccc1N,C13H10N2O3S,286.35199,0.6040,4,230.75,0,149.36873,1,"2-amino-<I>N</I>-methyl-<I>N</I>-[(2-methyl-1,3-dioxolan-2-yl)methyl]benzenesulfonamide"
"InChI=1S/C13H11N/c14-11-5-6-13-10(8-11)7-9-3-1-2-4-12(9)13/h1-6,8H,7,14H2",CFRFHWQYWJMEJN-UHFFFAOYSA-N,Nc1cc2Cc3c(-c2cc1)cccc3,C13H18O2,181.23799,3.3070,0,187.88,0,69.161873,1,9<I>H</I>-fluoren-2-amine
"InChI=1S/C18H21N5O/c1-3-7-13(8-4-1)11-24-17-15-16(20-12-19-15)22-18(23-17)21-14-9-5-2-6-10-14/h2,5-6,9-10,12-13H,1,3-4,7-8,11H2,(H2,19,20,21,22,23)",XWWRLKIBRPJQJX-UHFFFAOYSA-N,O(CC1CCCCC1)c1nc(nc2[nH]cnc12)Nc1ccccc1,C13H9Cl3N2O,323.39999,3.6031,5,308.38,0,105.30205,0,6-(cyclohexylmethoxy)-<I>N</I>-phenyl-9<I>H</I>-purin-2-amine
"InChI=1S/C23H38O4/c1-2-3-4-5-6-7-8-9-10-11-12-13-14-15-16-17-18-19-23(26)27-22(20-24)21-25/h6-7,9-10,12-13,15-16,22,24-25H,2-5,8,11,14,17-21H2,1H3",RCRCTBLIHCHWDZ-UHFFFAOYSA-N,O(C(CO)CO)C(=O)CCCC=CCC=CCC=CCC=CCCCCC,C14H12O3,378.55298,4.1770,18,387.13,1,218.54456,1,"[2-hydroxy-1-(hydroxymethyl)ethyl] (5<I>E</I>,8<I>E</I>,11<I>E</I>,14<I>E</I>)-icosa-5,8,11,14-tetraenoate"
"InChI=1S/C10H11IO2/c11-7-9(10(12)13)6-8-4-2-1-3-5-8/h1-5,9H,6-7H2,(H,12,13)",CRYXPGIJLMKFPX-UHFFFAOYSA-N,ICC(Cc1ccccc1)C(O)=O,C15H12N2O,290.10001,2.7680,4,186.13,0,82.750191,0,2-benzyl-3-iodo-propanoic acid
"InChI=1S/C23H16FNO2/c1-14-21(23(26)27)19-13-18(24)11-12-20(19)25-22(14)17-9-7-16(8-10-17)15-5-3-2-4-6-15/h2-13H,1H3,(H,26,27)",WYKKHJQZENLZID-UHFFFAOYSA-N,Fc1cc2c(nc(-c3ccc(cc3)-c3ccccc3)c(C)c2C(O)=O)cc1,C4H4KNO4S,357.384,6.1480,3,340.13,1,94.537323,1,6-fluoro-3-methyl-2-(4-phenylphenyl)quinoline-4-carboxylic acid
"InChI=1S/C25H42N7O18P3S/c1-13(24(37)38)9-54-7-6-27-15(33)4-5-28-22(36)19(35)25(2,3)10-47-53(44,45)50-52(42,43)46-8-14-18(49-51(39,40)41)17(34)23(48-14)32-12-31-16-20(26)29-11-30-21(16)32/h11-14,17-19, 23,34-35H,4-10H2,1-3H3,(H,27,33)(H,28,36)(H,37,38)(H,42",YLEVKEKTOJAHCY-UHFFFAOYSA-N,S(CC(C(O)=O)C)CCNC(=O)CCNC(=O)C(O)C(COP(OP(OCC1OC(n2c3ncnc(N)c3nc2)C(O)C1OP(O)(O)=O)(O)=O)(O)=O)(C)C,C7H6O3,853.63,-5.0469,24,603.75,3,659.33405,1,"3-[2-[3-[[4-[[[5-(6-aminopurin-9-yl)-4-hydroxy-3-phosphonooxy-tetrahydrofuran-2-yl]methoxy-hydroxy-phosphoryl]oxy-hydroxy-phosphoryl]oxy-2-hydroxy-3,3-dimethyl-butanoyl]amino]propanoylamino]ethylsulfa nyl]-2-methyl-propanoic acid"
"InChI=1S/C6H11ClO5/c7-3-5(10)4(9)2(1-8)12-6(3)11/h2-6,8-11H,1H2",SNGNCYILSHZBLM-UHFFFAOYSA-N,ClC1C(O)C(O)C(OC1O)CO,C7H8N4O2,198.60199,-1.6840,1,136.50,0,207.44612,0,"3-chloro-6-(hydroxymethyl)tetrahydropyran-2,4,5-triol"
"InChI=1S/C10H12ClN5O3/c11-10-14-8(12)7-9(15-10)16(3-13-7)6-1-4(18)5(2-17)19-6/h3-6,17-18H,1-2H2,(H2,12,14,15)",PTOAARAWEBMLNO-UHFFFAOYSA-N,Clc1nc(N)c2ncn(c2n1)C1OC(CO)C(O)C1,C8H10N4O2,285.69101,-0.3449,2,225.88,0,217.0256,1,5-(6-amino-2-chloro-purin-9-yl)-2-(hydroxymethyl)tetrahydrofuran-3-ol
"InChI=1S/C15H20ClN5O4/c16-15-19-12(18-7-3-1-2-4-7)9-13(20-15)21(6-17-9)14-11(24)10(23)8(5-22)25-14/h6-8,10-11,14,22-24H,1-5H2,(H,18,19,20)",XSMYYYQVWPZWIZ-UHFFFAOYSA-N,Clc1nc(NC2CCCC2)c2ncn(c2n1)C1OC(CO)C(O)C1O,C8H14ClN5,369.80899,0.4961,4,299.13,0,205.43042,0,"2-[2-chloro-6-(cyclopentylamino)purin-9-yl]-5-(hydroxymethyl)tetrahydrofuran-3,4-diol"
"InChI=1S/C10H15ClN5O13P3/c11-10-14-7(12)4-8(15-10)16(2-13-4)9-6(18)5(17)3(27-9)1-26-31(22,23)29-32(24,25)28-30(19,20)21/h2-3,5-6,9,17-18H,1H2,(H,22,23)(H,24,25)(H2,12,14,15)(H2,19,20,21)/p-4",RNGCVFCOKZEZFL-UHFFFAOYSA-J,Clc1nc(N)c2ncn(c2n1)C1OC(COP(OP(OP(=O)([O-])[O-])(=O)[O-])(=O)[O-])C(O)C1O,C8H8O3,537.59497,-4.2109,8,326.38,2,485.2999,1,"[[[5-(6-amino-2-chloro-purin-9-yl)-3,4-dihydroxy-tetrahydrofuran-2-yl]methoxy-oxido-phosphoryl]oxy-oxido-phosphoryl] phosphate"
"InChI=1S/C10H15ClN5O13P3/c11-10-14-7(12)4-8(15-10)16(2-13-4)9-6(18)5(17)3(27-9)1-26-31(22,23)29-32(24,25)28-30(19,20)21/h2-3,5-6,9,17-18H,1H2,(H,22,23)(H,24,25)(H2,12,14,15)(H2,19,20,21)",RNGCVFCOKZEZFL-UHFFFAOYSA-N,Clc1nc(N)c2ncn(c2n1)C1OC(COP(OP(OP(O)(O)=O)(O)=O)(O)=O)C(O)C1O,C8H9NO2,541.62701,-4.0109,8,326.38,3,475.93033,1,"[[5-(6-amino-2-chloro-purin-9-yl)-3,4-dihydroxy-tetrahydrofuran-2-yl]methoxy-hydroxy-phosphoryl] phosphono hydrogen phosphate"
"InChI=1S/C12H11F3N2O2/c1-7(18)10(6-16)11(19)17-9-4-2-8(3-5-9)12(13,14)15/h2-5,7,10,18H,1H3,(H,17,19)",YODXEQNROKSLLQ-UHFFFAOYSA-N,FC(F)(F)c1ccc(NC(=O)C(C(O)C)C#N)cc1,C9H10O3,272.22598,1.2068,6,226.75,0,241.25978,0,2-cyano-3-hydroxy-<I>N</I>-[4-(trifluoromethyl)phenyl]butanamide
"InChI=1S/C10H21NO/c11-8-10(12)9-6-4-2-1-3-5-7-9/h9-10,12H,1-8,11H2",NUOYMOJXFODLFN-UHFFFAOYSA-N,OC(CN)C1CCCCCCC1,C9H8O2,171.284,1.8300,2,166.13,0,101.79193,1,2-amino-1-cyclooctyl-ethanol
"InChI=1S/C10H16Br2Cl2/c1-4-10(14,7-11)6-5-8(12)9(2,3)13/h4,8H,1,5-7H2,2-3H3",OGRGXGGBTRUIDS-UHFFFAOYSA-N,BrC(C(Cl)(C)C)CCC(Cl)(C=C)CBr,C10H11ClO3,366.952,5.6410,6,220.38,1,260.53799,0,"6-bromo-3-(bromomethyl)-3,7-dichloro-7-methyl-oct-1-ene"
"InChI=1S/C11H17NO8/c1-4(14)12-8-5(15)2-7(11(18)19)20-10(8)9(17)6(16)3-13/h2,5-6,8-10,13,15-17H,3H2,1H3,(H,12,14)(H,18,19)",JINJZWSZQKHCIP-UHFFFAOYSA-N,O1C(C(O)C(O)CO)C(NC(=O)C)C(O)C=C1C(O)=O,C10H11N3O3S,291.25598,-2.7960,6,224.75,1,323.69849,1,"3-acetamido-4-hydroxy-2-(1,2,3-trihydroxypropyl)-3,4-dihydro-2<I>H</I>-pyran-6-carboxylic acid"
"InChI=1S/C6H16NO8P/c7-3(1-8)5(10)6(11)4(9)2-15-16(12,13)14/h3-6,8-11H,1-2,7H2,(H2,12,13,14)",LBNVXZROMBUNNQ-UHFFFAOYSA-N,P(OCC(O)C(O)C(O)C(N)CO)(O)(O)=O,C10H12O3,261.16699,-4.4990,7,173.00,1,321.12799,1,"(5-amino-2,3,4,6-tetrahydroxy-hexyl) dihydrogen phosphate"
"InChI=1S/C44H84NO7P/c1-6-8-10-12-14-16-18-20-22-23-24-25-27-29-31-33-35-37-44(46)52-43(42-51-53(47,48)50-40-38-45(3,4)5)41-49-39-36-34-32-30-28-26-21-19-17-15-13-11-9-7-2/h14,16,20,22,24-25,43H,6-13,1 5,17-19,21,23,26-42H2,1-5H3",VYKSGWCIVDQIQR-UHFFFAOYSA-N,P(OCC(OC(=O)CCCCCCC=CCC=CCC=CCCCCC)COCCCCCCCCCCCCCCCC)(OCC[N+](C)(C)C)(=O)[O-],C12H7Cl3O2,770.13,10.6495,41,761.25,2,219.57129,0,"[3-hexadecoxy-2-[(8<I>E</I>,11<I>E</I>,14<I>E</I>)-icosa-8,11,14-trienoyl]oxy-propyl] 2-(trimethylammonio)ethyl phosphate"
"InChI=1S/C44H84NO7P/c1-6-8-10-12-14-16-18-20-22-23-24-25-27-29-31-33-35-37-44(46)52-43(42-51-53(47,48)50-40-38-45(3,4)5)41-49-39-36-34-32-30-28-26-21-19-17-15-13-11-9-7-2/h14,16,20,22,24-25,43H,6-13,1 5,17-19,21,23,26-42H2,1-5H3/p+1",VYKSGWCIVDQIQR-UHFFFAOYSA-O,P(OCC(OC(=O)CCCCCCC=CCC=CCC=CCCCCC)COCCCCCCCCCCCCCCCC)(OCC[N+](C)(C)C)(O)=O,C13H10N2O3S,771.138,10.6995,41,761.25,2,222.91882,1,"2-[[3-hexadecoxy-2-[(8<I>E</I>,11<I>E</I>,14<I>E</I>)-icosa-8,11,14-trienoyl]oxy-propoxy]-hydroxy-phosphoryl]oxyethyl-trimethyl-ammonium"
"InChI=1S/C43H78NO7P/c1-6-8-10-12-14-16-18-20-22-23-24-26-28-30-32-34-36-43(45)51-42(41-50-52(46,47)49-39-37-44(3,4)5)40-48-38-35-33-31-29-27-25-21-19-17-15-13-11-9-7-2/h8,10,14,16,20,22,24,26,30,32,42 H,6-7,9,11-13,15,17-19,21,23,25,27-29,31,33-41H2,1-5H3",YCVXBAKAHCAKIY-UHFFFAOYSA-N,P(OCC(OC(=O)CCC=CCC=CCC=CCC=CCC=CCC)COCCCCCCCCCCCCCCCC)(OCC[N+](C)(C)C)(=O)[O-],C13H18O2,752.07098,9.0195,38,743.75,2,292.74115,0,"[3-hexadecoxy-2-[(4<I>E</I>,7<I>E</I>,10<I>E</I>,13<I>E</I>,16<I>E</I>)-nonadeca-4,7,10,13,16-pentaenoyl]oxy-propyl] 2-(trimethylammonio)ethyl phosphate"
"InChI=1S/C43H78NO7P/c1-6-8-10-12-14-16-18-20-22-23-24-26-28-30-32-34-36-43(45)51-42(41-50-52(46,47)49-39-37-44(3,4)5)40-48-38-35-33-31-29-27-25-21-19-17-15-13-11-9-7-2/h8,10,14,16,20,22,24,26,30,32,42 H,6-7,9,11-13,15,17-19,21,23,25,27-29,31,33-41H2,1-5H3/",YCVXBAKAHCAKIY-UHFFFAOYSA-O,P(OCC(OC(=O)CCC=CCC=CCC=CCC=CCC=CCC)COCCCCCCCCCCCCCCCC)(OCC[N+](C)(C)C)(O)=O,C13H9Cl3N2O,753.07898,9.0695,38,743.75,2,324.61902,1,"2-[[3-hexadecoxy-2-[(4<I>E</I>,7<I>E</I>,10<I>E</I>,13<I>E</I>,16<I>E</I>)-nonadeca-4,7,10,13,16-pentaenoyl]oxy-propoxy]-hydroxy-phosphoryl]oxyethyl-trimethyl-ammonium"
"InChI=1S/C19H21NO6S/c1-4-26-18(21)13-20(17-8-6-5-7-16(17)19(22)25-3)27(23,24)15-11-9-14(2)10-12-15/h5-12H,4,13H2,1-3H3",BQRYIDLLMHALEC-UHFFFAOYSA-N,S(=O)(=O)(N(CC(OCC)=O)c1ccccc1C(OC)=O)c1ccc(cc1)C,C14H12O3,391.444,2.6530,9,333.38,0,135.76874,1,methyl 2-[(2-ethoxy-2-oxo-ethyl)-(p-tolylsulfonyl)amino]benzoate
"InChI=1S/C16H31FO2/c1-2-3-4-5-6-7-8-9-10-11-12-13-14-15(17)16(18)19/h15H,2-14H2,1H3,(H,18,19)",JGRIJJOLCNCSNX-UHFFFAOYSA-N,FC(CCCCCCCCCCCCCC)C(O)=O,C15H12N2O,274.41998,6.2900,14,270.00,1,127.88975,0,2-fluorohexadecanoic acid
"InChI=1S/C16H21NO2/c1-2-3-4-5-6-9-13-12-16(18)14-10-7-8-11-15(14)17(13)19/h7-8,10-12,19H,2-6,9H2,1H3",ICTVCUOZYWNYHM-UHFFFAOYSA-N,O=C1C=C(N(O)c2c1cccc2)CCCCCCC,C4H4KNO4S,259.349,4.6110,6,256.38,0,68.483002,1,2-heptyl-1-hydroxy-quinolin-4-one
"InChI=1S/C7H13NO4/c1-4(2)3-5(7(10)11)6(9)8-12/h4-5,12H,3H2,1-2H3,(H,8,9)(H,10,11)",CINIOMOBGSHXRK-UHFFFAOYSA-N,OC(=O)C(CC(C)C)C(=O)NO,C7H6O3,175.18399,0.3210,5,142.88,0,187.00615,0,2-(hydroxycarbamoyl)-4-methyl-pentanoic acid
"InChI=1S/C14H28O3/c1-2-3-4-5-6-7-8-9-10-11-12-13(15)14(16)17/h13,15H,2-12H2,1H3,(H,16,17)",JYZJYKOZGGEXSX-UHFFFAOYSA-N,OC(CCCCCCCCCCCC)C(O)=O,C7H8N4O2,244.375,4.5970,12,239.25,0,118.38296,1,2-hydroxytetradecanoic acid
"InChI=1S/C9H12ClNO4S/c10-8-3-1-7(2-4-8)9(12,5-11)6-16(13,14)15/h1-4,12H,5-6,11H2,(H,13,14,15)",WBSMZVIMANOCNX-UHFFFAOYSA-N,Clc1ccc(cc1)C(O)(CN)CS(O)(=O)=O,C8H10N4O2,265.71701,0.1060,4,187.13,0,189.7697,1,3-amino-2-(4-chlorophenyl)-2-hydroxy-propane-1-sulfonic acid
"InChI=1S/C10H17N3O2S/c11-10-12-6-5-16-7(9(6)13-10)3-1-2-4-8(14)15/h6-7,9H,1-5H2,(H,14,15)(H3,11,12,13)",WWVANQJRLPIHNS-UHFFFAOYSA-N,S1CC2NC(=NC2C1CCCCC(O)=O)N,C8H14ClN5,243.33099,0.7170,5,198.63,0,257.26004,0,"5-(2-amino-3<I>a</I>,4,6,6<I>a</I>-tetrahydro-1<I>H</I>-thieno[3,4-d]imidazol-4-yl)pentanoic acid"
"InChI=1S/C25H34N4O8/c1-15(2)13-19(23(26)33)29-25(35)18(10-12-22(32)37-4)28-20(30)14-27-24(34)17-8-5-16(6-9-17)7-11-21(31)36-3/h5-9,11,15,18-19H,10,12-14H2,1-4H3,(H2,26,33)(H,27,34)(H,28,30)(H,29,35)",RDGQUUSLXGMWFE-UHFFFAOYSA-N,O(C(=O)CCC(NC(=O)CNC(=O)c1ccc(cc1)C=CC(OC)=O)C(=O)NC(CC(C)C)C(=O)N)C,C8H8O3,518.56702,1.1110,19,467.38,2,370.23508,1,methyl 5-[(1-carbamoyl-3-methyl-butyl)amino]-4-[[2-[[4-[(<I>E</I>)-3-methoxy-3-oxo-prop-1-enyl]benzoyl]amino]acetyl]amino]-5-oxo-pentanoate
"InChI=1S/C2H6OS/c3-1-2-4/h3-4H,1-2H2",DGVVWUTYPXICAM-UHFFFAOYSA-N,SCCO,C8H9NO2,78.135002,0.0470,1,62.88,0,132.22906,0,2-sulfanylethanol
"InChI=1S/C5H5NOS.Na/c7-6-4-2-1-3-5(6)8;/h1-4,8H;/q;+1/p-1",WNGMMIYXPIAYOB-UHFFFAOYSA-M,[S-]c1[n+]([O-])cccc1.[Na+],C9H10O3,149.149,1.7850,0,150.38,0,284.9577,1,sodium;1-oxidopyridin-1-ium-2-thiolate
"InChI=1S/C5H5NOS/c7-6-4-2-1-3-5(6)8/h1-4,7H",YBBJKCMMCRQZMA-UHFFFAOYSA-N,S=C1N(O)C=CC=C1,C9H8O2,127.167,0.2350,0,111.25,0,118.2794,1,1-hydroxypyridine-2-thione
"InChI=1S/C25H53N2O6P/c1-6-7-8-9-10-11-12-13-14-15-16-17-18-19-25(28)26-21-23(32-5)20-24(22-27(2,3)4)33-34(29,30)31/h23-24H,6-22H2,1-5H3,(H2-,26,28,29,30,31)",DXOJZQXDRYLJAP-UHFFFAOYSA-N,P(OC(CC(OC)CNC(=O)CCCCCCCCCCCCCCC)C[N+](C)(C)C)(O)(=O)[O-],C10H11ClO3,508.681,4.2910,24,460.50,1,239.93304,0,[4-(hexadecanoylamino)-3-methoxy-1-[(trimethylammonio)methyl]butyl] hydrogen phosphate
"InChI=1S/C25H53N2O6P/c1-6-7-8-9-10-11-12-13-14-15-16-17-18-19-25(28)26-21-23(32-5)20-24(22-27(2,3)4)33-34(29,30)31/h23-24H,6-22H2,1-5H3,(H2-,26,28,29,30,31)/p+1",DXOJZQXDRYLJAP-UHFFFAOYSA-O,P(OC(CC(OC)CNC(=O)CCCCCCCCCCCCCCC)C[N+](C)(C)C)(O)(O)=O,C10H11N3O3S,509.689,4.3410,24,460.50,1,225.77802,1,[5-(hexadecanoylamino)-4-methoxy-2-phosphonooxy-pentyl]-trimethyl-ammonium
"InChI=1S/C19H26O3/c1-19-8-7-12-13(15(19)5-6-18(19)21)4-3-11-9-16(20)17(22-2)10-14(11)12/h9-10,12-13,15,18,20-21H,3-8H2,1-2H3",CQOQDQWUFQDJMK-UHFFFAOYSA-N,O(C)c1cc2C3C(C4CCC(O)C4(CC3)C)CCc2cc1O,C10H12O3,302.414,3.8420,1,271.38,0,115.06953,0,"2-methoxy-13-methyl-6,7,8,9,11,12,14,15,16,17-decahydrocyclopenta[a]phenanthrene-3,17-diol"
"InChI=1S/C11H14N2O/c1-7-9(4-5-12)10-6-8(14)2-3-11(10)13-7/h2-3,6,13-14H,4-5,12H2,1H3",WYWNEDARFVJQSG-UHFFFAOYSA-N,Oc1cc2c([nH]c(C)c2CCN)cc1,C12H7Cl3O2,190.246,1.4380,2,183.50,0,149.16736,1,3-(2-aminoethyl)-2-methyl-1<I>H</I>-indol-5-ol
"InChI=1S/C10H13NO/c1-8(11-2)10(12)9-6-4-3-5-7-9/h3-8,11H,1-2H3",LPLLVINFLBSFRP-UHFFFAOYSA-N,O=C(C(NC)C)c1ccccc1,C13H10N2O3S,163.22,1.7040,3,167.25,0,69.228455,1,2-(methylamino)-1-phenyl-propan-1-one
"InChI=1S/C12H9BrN2O/c1-15-5-4-7-9(6-15)14-8-2-3-10(16)12(13)11(7)8/h2-6,16H,1H3/p+1",UWBLOZFYNVSKIM-UHFFFAOYSA-O,Brc1c2c3c([nH]c2ccc1O)c[n+](cc3)C,C13H18O2,278.129,3.8755,0,217.00,0,119.2305,0,"5-bromo-2-methyl-9<I>H</I>-pyrido[3,4-b]indol-2-ium-6-ol"
"InChI=1S/C12H9BrN2O/c1-15-3-2-7-8-4-12(16)9(13)5-10(8)14-11(7)6-15/h2-6,16H,1H3/p+1",VAXRKCUOOXJMND-UHFFFAOYSA-O,Brc1cc2[nH]c3c(c2cc1O)cc[n+](c3)C,C13H9Cl3N2O,278.129,3.9515,0,215.13,0,118.83624,1,"7-bromo-2-methyl-9<I>H</I>-pyrido[3,4-b]indol-2-ium-6-ol"
"InChI=1S/C11H17N5O10P2S/c1-29-11-14-8(12)5-9(15-11)16(3-13-5)10-7(18)6(17)4(25-10)2-24-28(22,23)26-27(19,20)21/h3-4,6-7,10,17-18H,2H2,1H3,(H,22,23)(H2,12,14,15)(H2,19,20,21)/p-3",WLMZTKAZJUWXCB-UHFFFAOYSA-K,S(C)c1nc(N)c2ncn(c2n1)C1OC(COP(OP(=O)([O-])[O-])(=O)[O-])C(O)C1O,C14H12O3,470.272,-3.2789,7,312.63,1,430.90311,0,"[[5-(6-amino-2-methylsulfanyl-purin-9-yl)-3,4-dihydroxy-tetrahydrofuran-2-yl]methoxy-oxido-phosphoryl] phosphate"
"InChI=1S/C11H17N5O10P2S/c1-29-11-14-8(12)5-9(15-11)16(3-13-5)10-7(18)6(17)4(25-10)2-24-28(22,23)26-27(19,20)21/h3-4,6-7,10,17-18H,2H2,1H3,(H,22,23)(H2,12,14,15)(H2,19,20,21)",WLMZTKAZJUWXCB-UHFFFAOYSA-N,S(C)c1nc(N)c2ncn(c2n1)C1OC(COP(OP(O)(O)=O)(O)=O)C(O)C1O,C15H12N2O,473.29599,-3.1289,7,312.63,2,462.6308,1,"[5-(6-amino-2-methylsulfanyl-purin-9-yl)-3,4-dihydroxy-tetrahydrofuran-2-yl]methyl phosphono hydrogen phosphate"
"InChI=1S/C11H18N5O13P3S/c1-33-11-14-8(12)5-9(15-11)16(3-13-5)10-7(18)6(17)4(27-10)2-26-31(22,23)29-32(24,25)28-30(19,20)21/h3-4,6-7,10,17-18H,2H2,1H3,(H,22,23)(H,24,25)(H2,12,14,15)(H2,19,20,21)/p-4",XNOBOKJVOTYSJV-UHFFFAOYSA-J,S(C)c1nc(N)c2ncn(c2n1)C1OC(COP(OP(OP(=O)([O-])[O-])(=O)[O-])(=O)[O-])C(O)C1O,C4H4KNO4S,549.24298,-4.2109,9,342.13,2,537.06555,1,"[[[5-(6-amino-2-methylsulfanyl-purin-9-yl)-3,4-dihydroxy-tetrahydrofuran-2-yl]methoxy-oxido-phosphoryl]oxy-oxido-phosphoryl] phosphate"
"InChI=1S/C11H18N5O13P3S/c1-33-11-14-8(12)5-9(15-11)16(3-13-5)10-7(18)6(17)4(27-10)2-26-31(22,23)29-32(24,25)28-30(19,20)21/h3-4,6-7,10,17-18H,2H2,1H3,(H,22,23)(H,24,25)(H2,12,14,15)(H2,19,20,21)",XNOBOKJVOTYSJV-UHFFFAOYSA-N,S(C)c1nc(N)c2ncn(c2n1)C1OC(COP(OP(OP(O)(O)=O)(O)=O)(O)=O)C(O)C1O,C7H6O3,553.27502,-4.0109,9,342.13,3,573.19342,0,"[[5-(6-amino-2-methylsulfanyl-purin-9-yl)-3,4-dihydroxy-tetrahydrofuran-2-yl]methoxy-hydroxy-phosphoryl] phosphono hydrogen phosphate"
"InChI=1S/C20H14N2O6/c23-19(24)14-11-12-18(17(13-14)22(26)27)28-20(25)21(15-7-3-1-4-8-15)16-9-5-2-6-10-16/h1-13H,(H,23,24)",RLNYDAFUTZRAIW-UHFFFAOYSA-N,O(C(=O)N(c1ccccc1)c1ccccc1)c1ccc(cc1[N+](=O)[O-])C(O)=O,C7H8N4O2,378.34,4.6350,7,341.88,0,177.31982,1,4-(diphenylcarbamoyloxy)-3-nitro-benzoic acid