InChI,Key,smiles,Formula,Weight,logP(o/w),b_rotN,vol,lip_violation,ASA_P,Natural,ChemicalName
"InChI=1S/C25H54NO6P/c1-6-7-8-9-10-11-12-13-14-15-16-17-18-19-21-30-23-25(29-5)24-32-33(27,28)31-22-20-26(2,3)4/h25H,6-24H2,1-5H3",RZNRKXGAJMGLIM-UHFFFAOYSA-N,P(OCC(OC)COCCCCCCCCCCCCCCCC)(OCC[N+](C)(C)C)(=O)[O-],C13H10N2O3S,495.68198,4.8195,25,466.25,0,159.65494,1,(3-hexadecoxy-2-methoxy-propyl) 2-(trimethylammonio)ethyl phosphate
"InChI=1S/C25H54NO6P/c1-6-7-8-9-10-11-12-13-14-15-16-17-18-19-21-30-23-25(29-5)24-32-33(27,28)31-22-20-26(2,3)4/h25H,6-24H2,1-5H3/p+1",RZNRKXGAJMGLIM-UHFFFAOYSA-O,P(OCC(OC)COCCCCCCCCCCCCCCCC)(OCC[N+](C)(C)C)(O)=O,C13H18O2,496.69,4.8695,25,466.25,1,200.63817,0,2-[(3-hexadecoxy-2-methoxy-propoxy)-hydroxy-phosphoryl]oxyethyl-trimethyl-ammonium
"InChI=1S/C21H42O4/c1-3-4-5-6-7-8-9-10-11-12-13-14-15-16-17-24-19-21(18-22)25-20(2)23/h21-22H,3-19H2,1-2H3",QTEHGUUSIIWOOW-UHFFFAOYSA-N,O(C(COCCCCCCCCCCCCCCCC)CO)C(=O)C,C13H9Cl3N2O,358.56299,5.9827,20,361.13,1,127.1794,1,[1-(hexadecoxymethyl)-2-hydroxy-ethyl] acetate
"InChI=1S/C20H42O3/c1-3-4-5-6-7-8-9-10-11-12-13-14-15-16-17-23-19-20(18-21)22-2/h20-21H,3-19H2,1-2H3",XAWCMDFDFNRKGK-UHFFFAOYSA-N,O(CC(OC)CO)CCCCCCCCCCCCCCCC,C14H12O3,330.55298,6.0057,19,341.38,1,91.802635,1,3-hexadecoxy-2-methoxy-propan-1-ol
"InChI=1S/C16H32F3O6P/c1-3-4-5-6-7-8-9-10-11-23-12-15(25-26(20,21)22-2)13-24-14-16(17,18)19/h15H,3-14H2,1-2H3,(H,20,21)",YBCDZAGHRGXDRX-UHFFFAOYSA-N,P(OC(COCCCCCCCCCC)COCC(F)(F)F)(OC)(O)=O,C15H12N2O,408.39398,3.4242,18,331.50,0,241.55315,0,"[1-(decoxymethyl)-2-(2,2,2-trifluoroethoxy)ethyl] methyl hydrogen phosphate"
"InChI=1S/C16H12O3/c1-8-7-12-13(14(17)9(8)2)16(19)11-6-4-3-5-10(11)15(12)18/h3-7,17H,1-2H3",GARRKQYRNXWAAS-UHFFFAOYSA-N,Oc1c2c(cc(C)c1C)C(=O)c1c(cccc1)C2=O,C4H4KNO4S,252.269,3.2830,0,237.38,0,92.63578,1,"1-hydroxy-2,3-dimethyl-anthracene-9,10-dione"
"InChI=1S/C5H14N4O2/c1-6-4-3-5-8(2)9(11)7-10/h6,11H,3-5H2,1-2H3",AXAGAUVQMYPYHM-UHFFFAOYSA-N,ON(N(CCCNC)C)N=O,C7H6O3,162.19299,-0.8830,6,144.63,0,125.63964,0,<I>N</I>-hydroxy-<I>N</I>-[methyl-[3-(methylamino)propyl]amino]nitrous amide
"InChI=1S/C11H11NO3/c1-15-11-5-8-7(4-10(11)14)2-3-12-9(8)6-13/h2-5,12-13H,6H2,1H3",XLOOMNWZRXRXFX-UHFFFAOYSA-N,O(C)C1=CC=2C(=CC1=O)C=CNC=2CO,C7H8N4O2,205.213,0.3460,2,188.75,0,155.9742,1,1-(hydroxymethyl)-7-methoxy-2<I>H</I>-isoquinolin-6-one
"InChI=1S/C16H18ClNO4S/c1-9(2)22-16(20)12-8-11(4-5-13(12)17)18-15(19)14-10(3)21-6-7-23-14/h4-5,8-9H,6-7H2,1-3H3,(H,18,19)",FMQGUMRNTBJHEA-UHFFFAOYSA-N,Clc1ccc(NC(=O)C=2SCCOC=2C)cc1C(OC(C)C)=O,C8H10N4O2,355.84198,3.5660,6,303.50,0,115.66123,1,"isopropyl 2-chloro-5-[(6-methyl-2,3-dihydro-1,4-oxathiine-5-carbonyl)amino]benzoate"
"InChI=1S/C8H8N2O3S2/c1-10-7-3-2-5(15(9,12)13)4-6(7)8(11)14-10/h2-4H,1H3,(H2,9,12,13)",DFPYCCVFXMWMJM-UHFFFAOYSA-N,S1N(c2c(cc(S(=O)(=O)N)cc2)C1=O)C,C8H14ClN5,244.295,0.1800,1,178.50,0,202.68234,0,"1-methyl-3-oxo-2,1-benzothiazole-5-sulfonamide"
"InChI=1S/C12H15N/c1-13-9-7-12(8-10-13)11-5-3-2-4-6-11/h2-7H,8-10H2,1H3",PLRACCBDVIHHLZ-UHFFFAOYSA-N,N1(CCC(=CC1)c1ccccc1)C,C8H8O3,173.259,2.2530,1,185.13,0,48.504162,1,"1-methyl-4-phenyl-3,6-dihydro-2<I>H</I>-pyridine"
"InChI=1S/C20H20N2O5S/c1-21-18-10-9-16(12-17(18)19(23)20(21)24)28(25,26)22-11-5-6-14(22)13-27-15-7-3-2-4-8-15/h2-4,7-10,12,14H,5-6,11,13H2,1H3",PFAYCUAUBOGVDX-UHFFFAOYSA-N,S(=O)(=O)(N1CCCC1COc1ccccc1)c1cc2c(N(C)C(=O)C2=O)cc1,C8H9NO2,400.45499,1.6490,5,345.88,0,188.96873,0,"1-methyl-5-[2-(phenoxymethyl)pyrrolidin-1-yl]sulfonyl-indoline-2,3-dione"
"InChI=1S/C4H6N2/c1-6-3-2-5-4-6/h2-4H,1H3",MCTWTZJPVLRJOU-UHFFFAOYSA-N,n1ccn(c1)C,C9H10O3,82.105995,0.0320,0,88.38,0,72.298973,1,1-methylimidazole
"InChI=1S/C11H15N5O5/c1-15-8(12)5-9(14-11(15)20)16(3-13-5)10-7(19)6(18)4(2-17)21-10/h3-4,6-7,10,17-19H,2,12H2,1H3",NGSRMSVXLUMDAX-UHFFFAOYSA-N,O1C(CO)C(O)C(O)C1N1C2=NC(=O)N(C)C(N)=C2N=C1,C9H8O2,297.271,-2.0000,2,237.75,0,337.47519,1,"6-amino-9-[3,4-dihydroxy-5-(hydroxymethyl)tetrahydrofuran-2-yl]-1-methyl-purin-2-one"
"InChI=1S/C27H58NO6P/c1-6-7-8-9-10-11-12-13-14-15-16-17-18-19-20-21-23-32-25-27(31-5)26-34-35(29,30)33-24-22-28(2,3)4/h27H,6-26H2,1-5H3",MHFRGQHAERHWKZ-UHFFFAOYSA-N,P(OCC(OC)COCCCCCCCCCCCCCCCCCC)(OCC[N+](C)(C)C)(=O)[O-],C10H11ClO3,523.73596,5.7035,27,496.63,2,170.66731,0,(2-methoxy-3-octadecoxy-propyl) 2-(trimethylammonio)ethyl phosphate
"InChI=1S/C27H58NO6P/c1-6-7-8-9-10-11-12-13-14-15-16-17-18-19-20-21-23-32-25-27(31-5)26-34-35(29,30)33-24-22-28(2,3)4/h27H,6-26H2,1-5H3/p+1",MHFRGQHAERHWKZ-UHFFFAOYSA-O,P(OCC(OC)COCCCCCCCCCCCCCCCCCC)(OCC[N+](C)(C)C)(O)=O,C10H11N3O3S,524.74402,5.7535,27,496.63,2,197.79898,1,2-[hydroxy-(2-methoxy-3-octadecoxy-propoxy)phosphoryl]oxyethyl-trimethyl-ammonium
"InChI=1S/C23H42O5/c1-3-4-5-6-7-8-9-10-11-12-13-14-15-16-17-18-23(26)27-20-22(19-24)28-21(2)25/h10-11,22,24H,3-9,12-20H2,1-2H3",PWTCCMJTPHCGMS-UHFFFAOYSA-N,O(C(COC(=O)CCCCCCCC=CCCCCCCCC)CO)C(=O)C,C10H12O3,398.58398,5.4157,21,394.38,1,187.23392,0,(2-acetoxy-3-hydroxy-propyl) (<I>E</I>)-octadec-9-enoate
"InChI=1S/C16H11BrF3N3O2S/c17-11-3-1-10(2-4-11)14-9-15(16(18,19)20)22-23(14)12-5-7-13(8-6-12)26(21,24)25/h1-9H,(H2,21,24,25)",OYZKFVIVPRQRQQ-UHFFFAOYSA-N,Brc1ccc(cc1)-c1n(nc(c1)C(F)(F)F)-c1ccc(S(=O)(=O)N)cc1,C12H7Cl3O2,446.24698,3.6168,4,310.50,0,252.13251,1,4-[5-(4-bromophenyl)-3-(trifluoromethyl)pyrazol-1-yl]benzenesulfonamide
"InChI=1S/C42H74O5/c1-3-5-7-9-11-13-15-17-19-20-22-24-26-28-30-32-34-36-42(45)47-40(37-38-43)39-46-41(44)35-33-31-29-27-25-23-21-18-16-14-12-10-8-6-4-2/h11,13,17,19,22,24,28,30,40,43H,3-10,12,14-16,18, 20-21,23,25-27,29,31-39H2,1-2H3",RDLRTDCSJLVIPK-UHFFFAOYSA-N,O(C(CCO)COC(=O)CCCCCCCCCCCCCCCCC)C(=O)CCCC=CCC=CCC=CCC=CCCCCC,C13H10N2O3S,659.04901,12.0647,37,687.38,2,196.44678,1,"[3-hydroxy-1-(octadecanoyloxymethyl)propyl] (5<I>E</I>,8<I>E</I>,11<I>E</I>,14<I>E</I>)-icosa-5,8,11,14-tetraenoate"
"InChI=1S/C41H72O5/c1-3-5-7-9-11-13-15-17-19-20-22-24-26-28-30-32-34-36-41(44)46-39(37-42)38-45-40(43)35-33-31-29-27-25-23-21-18-16-14-12-10-8-6-4-2/h11,13,17,19,22,24,28,30,39,42H,3-10,12,14-16,18,20- 21,23,25-27,29,31-38H2,1-2H3",NSXLMTYRMFVYNT-UHFFFAOYSA-N,O(C(COC(=O)CCCCCCCCCCCCCCCCC)CO)C(=O)CCCC=CCC=CCC=CCC=CCCCCC,C13H18O2,645.02197,11.6227,36,669.25,2,226.79189,0,"[1-(hydroxymethyl)-2-octadecanoyloxy-ethyl] (5<I>E</I>,8<I>E</I>,11<I>E</I>,14<I>E</I>)-icosa-5,8,11,14-tetraenoate"
"InChI=1S/C39H72O5/c1-3-5-7-9-11-13-15-17-19-21-23-25-27-29-31-33-38(41)43-36-37(35-40)44-39(42)34-32-30-28-26-24-22-20-18-16-14-12-10-8-6-4-2/h12,14,18,20,37,40H,3-11,13,15-17,19,21-36H2,1-2H3",AJMZUFBKADIAKC-UHFFFAOYSA-N,O(C(COC(=O)CCCCCCCCCCCCCCCCC)CO)C(=O)CCCCCCCC=CCC=CCCCCC,C13H9Cl3N2O,621,11.9267,36,640.88,2,159.74327,1,"[3-hydroxy-2-[(9<I>E</I>,12<I>E</I>)-octadeca-9,12-dienoyl]oxy-propyl] octadecanoate"
"InChI=1S/C16H19N5/c1-10-5-7-11(8-6-10)13-12-14(17)18-9-19-15(12)21(20-13)16(2,3)4/h5-9H,1-4H3,(H2,17,18,19)",ZVPDNRVYHLRXLX-UHFFFAOYSA-N,n1cnc2n(nc(c2c1N)-c1ccc(cc1)C)C(C)(C)C,C14H12O3,281.36301,2.5065,2,268.75,0,111.92407,0,"1-tert-butyl-3-(p-tolyl)pyrazolo[3,4-d]pyrimidin-4-amine"
"InChI=1S/C28H41N7O3/c1-8-35(9-2)13-11-10-12-29-26-30-18-20-16-23(19-14-21(37-6)17-22(15-19)38-7)25(31-24(20)32-26)33-27(36)34-28(3,4)5/h14-18H,8-13H2,1-7H3,(H3,29,30,31,32,33,34,36)",DXCUKNQANPLTEJ-UHFFFAOYSA-N,O(C)c1cc(cc(OC)c1)-c1cc2c(nc1NC(=O)NC(C)(C)C)nc(nc2)NCCCCN(CC)CC,C15H12N2O,523.68201,3.9680,15,502.75,2,193.0067,1,"1-tert-butyl-3-[2-[4-(diethylamino)butylamino]-6-(3,5-dimethoxyphenyl)pyrido[2,3-d]pyrimidin-7-yl]urea"
"InChI=1S/C23H27BN4O4/c25-15-18-9-4-8-17(12-18)14-21(24(31)32)27-22(29)20-10-5-11-28(20)23(30)19(26)13-16-6-2-1-3-7-16/h1-4,6-9,12,19-21,31-32H,5,10-11,13-14,26H2,(H,27,29)",UFOIPTZMXQILSG-UHFFFAOYSA-N,OB(O)C(NC(=O)C1N(CCC1)C(=O)C(N)Cc1ccccc1)Cc1cc(ccc1)C#N,C4H4KNO4S,434.30399,1.2230,11,403.38,0,238.86182,1,[1-[[1-(2-amino-3-phenyl-propanoyl)pyrrolidine-2-carbonyl]amino]-2-(3-cyanophenyl)ethyl]boronic acid
"InChI=1S/C19H22N2OS/c1-4-20(5-2)14(3)19(22)21-15-10-6-8-12-17(15)23-18-13-9-7-11-16(18)21/h6-14H,4-5H2,1-3H3",QCEWCMMSOWEHFC-UHFFFAOYSA-N,S1c2c(N(c3c1cccc3)C(=O)C(N(CC)CC)C)cccc2,C7H6O3,326.46399,3.9980,5,302.50,0,57.180592,0,2-(diethylamino)-1-phenothiazin-10-yl-propan-1-one
"InChI=1S/C23H22N4O8/c24-23-26-16-6-1-11(10-15(16)20(31)27-23)9-14(21(32)33)12-2-4-13(5-3-12)19(30)25-17(22(34)35)7-8-18(28)29/h1-6,10,14,17H,7-9H2,(H,25,30)(H,28,29)(H,32,33)(H,34,35)(H3,24,26,27,31)",DAOQLLQRJAXMGY-UHFFFAOYSA-N,O=C1N=C(Nc2c1cc(cc2)CC(C(O)=O)c1ccc(cc1)C(=O)NC(CCC(O)=O)C(O)=O)N,C7H8N4O2,482.44897,1.7380,11,402.00,2,426.01764,1,2-[[4-[2-(2-amino-4-oxo-1<I>H</I>-quinazolin-6-yl)-1-carboxy-ethyl]benzoyl]amino]pentanedioic acid
"InChI=1S/C24H23N5O6/c1-2-11-29(13-14-3-8-18-17(12-14)22(33)28-24(25)27-18)16-6-4-15(5-7-16)21(32)26-19(23(34)35)9-10-20(30)31/h1,3-8,12,19H,9-11,13H2,(H,26,32)(H,30,31)(H,34,35)(H3,25,27,28,33)",LTKHPMDRMUCUEB-UHFFFAOYSA-N,O=C1N=C(Nc2c1cc(cc2)CN(CC#C)c1ccc(cc1)C(=O)NC(CCC(O)=O)C(O)=O)N,C8H10N4O2,477.47699,2.2490,12,425.38,2,397.75409,0,2-[[4-[(2-amino-4-oxo-1<I>H</I>-quinazolin-6-yl)methyl-prop-2-ynyl-amino]benzoyl]amino]pentanedioic acid
"InChI=1S/C20H32O3/c1-2-3-4-5-7-10-13-16-19(21)17-14-11-8-6-9-12-15-18-20(22)23/h6-7,9-11,13-14,16,19,21H,2-5,8,12,15,17-18H2,1H3,(H,22,23)",GCZRCCHPLVMMJE-UHFFFAOYSA-N,OC(CC=CCC=CCCCC(O)=O)C=CC=CCCCCC,C8H14ClN5,320.47299,4.5190,14,331.50,1,186.07739,1,"(5<I>E</I>,8<I>E</I>,12<I>E</I>,14<I>E</I>)-11-hydroxyicosa-5,8,12,14-tetraenoic acid"
"InChI=1S/C20H32O3/c1-2-3-4-5-9-12-15-18-19(23-18)16-13-10-7-6-8-11-14-17-20(21)22/h6,8-10,12-13,18-19H,2-5,7,11,14-17H2,1H3,(H,21,22)",DXOYQVHGIODESM-UHFFFAOYSA-N,O1C(CC=CCCCCC)C1CC=CCC=CCCCC(O)=O,C8H8O3,320.47299,4.3440,14,329.75,1,181.8295,1,"(5<I>E</I>,8<I>E</I>)-10-[3-[(<I>E</I>)-oct-2-enyl]oxiran-2-yl]deca-5,8-dienoic acid"
"InChI=1S/C24H39N3O4/c1-16(2)11-12-25-15-21(28)20-14-18-7-9-19(10-8-18)31-13-5-6-22(29)27-23(17(3)4)24(30)26-20/h7-10,16-17,20-21,23,25,28H,5-6,11-15H2,1-4H3,(H,26,30)(H,27,29)",IUDJFSQFSQZRNP-UHFFFAOYSA-N,O1CCCC(=O)NC(C(C)C)C(=O)NC(Cc2ccc1cc2)C(O)CNCCC(C)C,C8H9NO2,433.59299,2.9000,7,410.63,0,123.75255,1,"3-[1-hydroxy-2-(isopentylamino)ethyl]-6-isopropyl-12-oxa-4,7-diazabicyclo[11.2.2]heptadeca-1(15),13,16-triene-5,8-dione"
"InChI=1S/C20H32O6/c1-2-3-6-9-15(21)12-13-18-16(17(22)14-20(25)26-18)10-7-4-5-8-11-19(23)24/h4,7,12-13,15-18,21-22H,2-3,5-6,8-11,14H2,1H3,(H,23,24)",KJYIVXDPWBUJBQ-UHFFFAOYSA-N,O1C(C=CC(O)CCCCC)C(CC=CCCCC(O)=O)C(O)CC1=O,C9H10O3,368.47,2.8370,12,341.75,0,229.57741,0,(<I>E</I>)-7-[4-hydroxy-2-[(<I>E</I>)-3-hydroxyoct-1-enyl]-6-oxo-tetrahydropyran-3-yl]hept-5-enoic acid
"InChI=1S/C27H29NO9/c1-11-23(30)16(28)8-19(36-11)37-18-10-27(34,12(2)29)9-13-7-15-22(25(32)20(13)18)26(33)21-14(24(15)31)5-4-6-17(21)35-3/h4-7,11,16,18-19,23,30,32,34H,8-10,28H2,1-3H3",ZCLQMQOBRBUQOR-UHFFFAOYSA-N,O1C(C)C(O)C(N)CC1OC1CC(O)(Cc2c1c(O)c1c(c2)C(=O)c2c(C1=O)c(OC)ccc2)C(=O)C,C9H8O2,511.52698,1.6760,4,429.25,1,273.05917,1,"9-acetyl-7-(4-amino-5-hydroxy-6-methyl-tetrahydropyran-2-yl)oxy-6,9-dihydroxy-4-methoxy-8,10-dihydro-7<I>H</I>-tetracene-5,12-dione"
"InChI=1S/C21H28O4/c1-4-5-6-7-13-10-17(22)19-15-12-14(20(23)24)8-9-16(15)21(2,3)25-18(19)11-13/h8,10-11,15-16,22H,4-7,9,12H2,1-3H3,(H,23,24)",OGXXAQFMAFTSRU-UHFFFAOYSA-N,O1c2c(C3C(CC=C(C3)C(O)=O)C1(C)C)c(O)cc(c2)CCCCC,C10H11ClO3,344.45099,4.5350,5,316.50,0,143.34277,1,"1-hydroxy-6,6-dimethyl-3-pentyl-6<I>a</I>,7,10,10<I>a</I>-tetrahydrobenzo[c]chromene-9-carboxylic acid"
"InChI=1S/C20H32O4/c21-18-14-10-6-5-8-12-16-19(22)15-11-7-3-1-2-4-9-13-17-20(23)24/h2-4,7-8,11-12,15,19,21-22H,1,5-6,9-10,13-14,16-18H2,(H,23,24)",NUPDGIJXOAHJRW-UHFFFAOYSA-N,OC(CC=CCCCCCO)C=CC=CCC=CCCCC(O)=O,C10H11N3O3S,336.47198,3.3120,15,337.63,0,238.99557,0,"(5<I>E</I>,8<I>E</I>,10<I>E</I>,14<I>E</I>)-12,20-dihydroxyicosa-5,8,10,14-tetraenoic acid"
"InChI=1S/C20H32O3/c1-2-3-4-5-10-13-16-19(21)17-14-11-8-6-7-9-12-15-18-20(22)23/h7-11,13-14,17,19,21H,2-6,12,15-16,18H2,1H3,(H,22,23)",ZNHVWPKMFKADKW-UHFFFAOYSA-N,OC(\C=C\C=C\C\C=C\CCCC(O)=O)C\C=C\CCCCC,C10H12O3,320.47299,4.5190,14,333.13,1,194.9604,1,"(5<I>E</I>,8<I>E</I>,10<I>E</I>,14<I>E</I>)-12-hydroxyicosa-5,8,10,14-tetraenoic acid"
"InChI=1S/C17H28O3/c1-2-3-10-13-16(18)14-11-8-6-4-5-7-9-12-15-17(19)20/h5-8,11,14,16,18H,2-4,9-10,12-13,15H2,1H3,(H,19,20)",KUKJHGXXZWHSBG-UHFFFAOYSA-N,OC(CCCCC)C=CC=CCC=CCCCC(O)=O,C12H7Cl3O2,280.40799,4.1410,12,286.00,0,154.75801,0,"(5<I>E</I>,8<I>E</I>,10<I>E</I>)-12-hydroxyheptadeca-5,8,10-trienoic acid"
"InChI=1S/C20H32O4/c1-2-3-4-5-10-13-16-19(24-23)17-14-11-8-6-7-9-12-15-18-20(21)22/h7-11,13-14,17,19,23H,2-6,12,15-16,18H2,1H3,(H,21,22)",ZIOZYRSDNLNNNJ-UHFFFAOYSA-N,O(O)C(CC=CCCCCC)C=CC=CCC=CCCCC(O)=O,C13H10N2O3S,336.47198,4.6560,15,341.00,1,207.20134,1,"(5<I>E</I>,8<I>E</I>,10<I>E</I>,14<I>E</I>)-12-hydroperoxyicosa-5,8,10,14-tetraenoic acid"
"InChI=1S/C18H32O3/c1-2-3-10-13-16-17(21-16)14-11-8-6-4-5-7-9-12-15-18(19)20/h8,11,16-17H,2-7,9-10,12-15H2,1H3,(H,19,20)",CCPPLLJZDQAOHD-UHFFFAOYSA-N,O1C(CCCCC)C1CC=CCCCCCCCC(O)=O,C13H18O2,296.45099,5.0020,14,299.13,1,135.75319,1,(<I>E</I>)-11-(3-pentyloxiran-2-yl)undec-9-enoic acid
"InChI=1S/C13H26O3/c1-16-12-10-8-6-4-2-3-5-7-9-11-13(14)15/h2-12H2,1H3,(H,14,15)",OGLQEYICTWWJQB-UHFFFAOYSA-N,O(CCCCCCCCCCCC(O)=O)C,C4H4KNO4S,230.34799,3.7790,12,231.25,0,142.99139,1,12-methoxydodecanoic acid
"InChI=1S/C19H37NO2/c1-2-3-4-7-10-16-20-18-14-11-13-17(18)12-8-5-6-9-15-19(21)22/h17-18,20H,2-16H2,1H3,(H,21,22)",RZZNGDIYQSCFGK-UHFFFAOYSA-N,OC(=O)CCCCCCC1CCCC1NCCCCCCC,C8H10N4O2,311.50998,5.8070,14,315.25,1,119.31705,1,7-[2-(heptylamino)cyclopentyl]heptanoic acid
"InChI=1S/C18H32O3/c1-2-3-11-14-17(19)15-12-9-7-5-4-6-8-10-13-16-18(20)21/h7,9,12,15,17,19H,2-6,8,10-11,13-14,16H2,1H3,(H,20,21)",HNICUWMFWZBIFP-UHFFFAOYSA-N,OC(CCCCC)C=CC=CCCCCCCCC(O)=O,C8H14ClN5,296.45099,5.1770,14,301.50,0,151.76552,0,"(9<I>E</I>,11<I>E</I>)-13-hydroxyoctadeca-9,11-dienoic acid"
"InChI=1S/C18H30O3/c1-2-3-11-14-17(19)15-12-9-7-5-4-6-8-10-13-16-18(20)21/h4,6-7,9,12,15,17,19H,2-3,5,8,10-11,13-14,16H2,1H3,(H,20,21)",HNBLUNXZQNJFRB-UHFFFAOYSA-N,OC(CCCCC)C=CC=CCC=CCCCCC(O)=O,C8H8O3,294.435,4.5830,13,301.50,0,167.78413,1,"(6<I>E</I>,9<I>E</I>,11<I>E</I>)-13-hydroxyoctadeca-6,9,11-trienoic acid"
"InChI=1S/C18H32O4/c1-2-3-11-14-17(22-21)15-12-9-7-5-4-6-8-10-13-16-18(19)20/h7,9,12,15,17,21H,2-6,8,10-11,13-14,16H2,1H3,(H,19,20)",JDSRHVWSAMTSSN-UHFFFAOYSA-N,O(O)C(CCCCC)C=CC=CCCCCCCCC(O)=O,C8H9NO2,312.44998,5.3140,15,309.00,0,167.33794,1,"(9<I>E</I>,11<I>E</I>)-13-hydroperoxyoctadeca-9,11-dienoic acid"
"InChI=1S/C20H34O5/c1-2-3-6-9-15(21)12-13-17-16(18(22)14-19(17)23)10-7-4-5-8-11-20(24)25/h4,7,16-19,22-23H,2-3,5-6,8-14H2,1H3,(H,24,25)",VKTIONYPMSCHQI-UHFFFAOYSA-N,OC1CC(O)C(CC=CCCCC(O)=O)C1CCC(=O)CCCCC,C9H10O3,354.487,2.6750,13,334.75,0,192.23836,0,"(<I>E</I>)-7-[3,5-dihydroxy-2-(3-oxooctyl)cyclopentyl]hept-5-enoic acid"
"InChI=1S/C20H36O5/c1-2-3-6-9-15(21)12-13-17-16(18(22)14-19(17)23)10-7-4-5-8-11-20(24)25/h15-17,19,21,23H,2-14H2,1H3,(H,24,25)",DPOINJQWXDTOSF-UHFFFAOYSA-N,OC1CC(=O)C(CCCCCCC(O)=O)C1CCC(O)CCCCC,C9H8O2,356.50299,3.6350,14,334.75,0,206.22902,1,7-[3-hydroxy-2-(3-hydroxyoctyl)-5-oxo-cyclopentyl]heptanoic acid
"InChI=1S/C17H28O3/c1-2-3-13-16(18)14-11-9-7-5-4-6-8-10-12-15-17(19)20/h7,9,11,14H,2-6,8,10,12-13,15H2,1H3,(H,19,20)",XKNIFAUKHPTBCY-UHFFFAOYSA-N,OC(=O)CCCCCCCC=CC=CC(=O)CCCC,C10H11ClO3,280.40799,4.5090,13,286.75,0,121.12771,0,"(9<I>E</I>,11<I>E</I>)-13-oxoheptadeca-9,11-dienoic acid"
"InChI=1S/C20H30O4/c1-2-3-4-5-6-9-13-18(21)14-10-7-8-11-15-19(22)16-12-17-20(23)24/h7-8,10-11,14-15,18-19,21-22H,2-5,12-13,16-17H2,1H3,(H,23,24)",PRCVOEPTHWOJMX-UHFFFAOYSA-N,OC(CCCC(O)=O)C=CC=CC=CC(O)CC#CCCCCC,C10H11N3O3S,334.45599,4.3140,14,337.75,0,167.25186,1,"(6<I>E</I>,8<I>E</I>,10<I>E</I>)-5,12-dihydroxyicosa-6,8,10-trien-14-ynoic acid"
"InChI=1S/C20H32O3/c1-2-3-12-15-18-19(23-18)16-13-10-8-6-4-5-7-9-11-14-17-20(21)22/h4,6-7,9-10,13,18-19H,2-3,5,8,11-12,14-17H2,1H3,(H,21,22)",JBSCUHKPLGKXKH-UHFFFAOYSA-N,O1C(CCCCC)C1CC=CCC=CCC=CCCCC(O)=O,C10H12O3,320.47299,4.6980,14,331.50,1,194.12921,1,"(5<I>E</I>,8<I>E</I>,11<I>E</I>)-13-(3-pentyloxiran-2-yl)trideca-5,8,11-trienoic acid"
"InChI=1S/C10H15N3/c1-8(12)13-7-10-4-2-3-9(5-10)6-11/h2-5H,6-7,11H2,1H3,(H2,12,13)",RODUKNYOEVZQPR-UHFFFAOYSA-N,N(=C(\N)/C)/Cc1cc(ccc1)CN,C12H7Cl3O2,177.25099,0.6890,3,180.13,0,160.33327,0,<I>N</I>'-[[3-(aminomethyl)phenyl]methyl]acetamidine
"InChI=1S/C20H36O3/c1-2-3-13-16-19(21)17-14-11-9-7-5-4-6-8-10-12-15-18-20(22)23/h9,11,14,17,19,21H,2-8,10,12-13,15-16,18H2,1H3,(H,22,23)",ZTRWPEHMGCHTIT-UHFFFAOYSA-N,OC(CCCCC)C=CC=CCCCCCCCCCC(O)=O,C13H10N2O3S,324.505,6.0610,16,333.75,1,144.10321,1,"(11<I>E</I>,13<I>E</I>)-15-hydroxyicosa-11,13-dienoic acid"
"InChI=1S/C20H30O3/c1-2-3-13-16-19(21)17-14-11-9-7-5-4-6-8-10-12-15-18-20(22)23/h3-5,8-11,13-14,17,19,21H,2,6-7,12,15-16,18H2,1H3,(H,22,23)",WLKCSMCLEKGITB-UHFFFAOYSA-N,OC(CC=CCC)C=CC=CCC=CCC=CCCCC(O)=O,C13H18O2,318.457,3.9250,13,331.75,0,230.03949,0,"(5<I>E</I>,8<I>E</I>,11<I>E</I>,13<I>E</I>,17<I>E</I>)-15-hydroxyicosa-5,8,11,13,17-pentaenoic acid"
"InChI=1S/C20H32O3/c1-2-3-13-16-19(21)17-14-11-9-7-5-4-6-8-10-12-15-18-20(22)23/h4-5,8-11,14,17,19,21H,2-3,6-7,12-13,15-16,18H2,1H3,(H,22,23)",JSFATNQSLKRBCI-UHFFFAOYSA-N,OC(CCCCC)C=CC=CCC=CCC=CCCCC(O)=O,C13H9Cl3N2O,320.47299,4.8730,14,331.75,1,193.6711,1,"(5<I>E</I>,8<I>E</I>,11<I>E</I>,13<I>E</I>)-15-hydroxyicosa-5,8,11,13-tetraenoic acid"
"InChI=1S/C20H34O3/c1-2-3-13-16-19(21)17-14-11-9-7-5-4-6-8-10-12-15-18-20(22)23/h4-5,9,11,14,17,19,21H,2-3,6-8,10,12-13,15-16,18H2,1H3,(H,22,23)",IUKXMNDGTWTNTP-UHFFFAOYSA-N,OC(CCCCC)C=CC=CCC=CCCCCCCC(O)=O,C14H12O3,322.48898,5.4670,15,333.75,1,170.04245,1,"(8<I>E</I>,11<I>E</I>,13<I>E</I>)-15-hydroxyicosa-8,11,13-trienoic acid"
"InChI=1S/C20H36O4/c1-2-3-13-16-19(24-23)17-14-11-9-7-5-4-6-8-10-12-15-18-20(21)22/h9,11,14,17,19,23H,2-8,10,12-13,15-16,18H2,1H3,(H,21,22)",KEXNVBSLXJLOPR-UHFFFAOYSA-N,O(O)C(CCCCC)C=CC=CCCCCCCCCCC(O)=O,C15H12N2O,340.504,6.1980,17,340.75,1,178.71806,0,"(11<I>E</I>,13<I>E</I>)-15-hydroperoxyicosa-11,13-dienoic acid"
"InChI=1S/C20H30O4/c1-2-3-13-16-19(24-23)17-14-11-9-7-5-4-6-8-10-12-15-18-20(21)22/h3-5,8-11,13-14,17,19,23H,2,6-7,12,15-16,18H2,1H3,(H,21,22)",FPMFSFWYWZLDKP-UHFFFAOYSA-N,O(O)C(CC=CCC)C=CC=CCC=CCC=CCCCC(O)=O,C4H4KNO4S,334.45599,4.0620,14,340.75,0,232.47826,1,"(5<I>E</I>,8<I>E</I>,11<I>E</I>,13<I>E</I>,17<I>E</I>)-15-hydroperoxyicosa-5,8,11,13,17-pentaenoic acid"
"InChI=1S/C20H32O4/c1-2-3-13-16-19(24-23)17-14-11-9-7-5-4-6-8-10-12-15-18-20(21)22/h4-5,8-11,14,17,19,23H,2-3,6-7,12-13,15-16,18H2,1H3,(H,21,22)",BFWYTORDSFIVKP-UHFFFAOYSA-N,O(O)C(CCCCC)C=CC=CCC=CCC=CCCCC(O)=O,C7H6O3,336.47198,5.0100,15,340.75,1,178.36163,0,"(5<I>E</I>,8<I>E</I>,11<I>E</I>,13<I>E</I>)-15-hydroperoxyicosa-5,8,11,13-tetraenoic acid"
"InChI=1S/C20H30O5/c1-2-3-6-9-15(21)12-13-17-16(18(22)14-19(17)23)10-7-4-5-8-11-20(24)25/h4,7,12-13,16-17,19,23H,2-3,5-6,8-11,14H2,1H3,(H,24,25)",YRTJDWROBKPZNV-UHFFFAOYSA-N,OC1CC(=O)C(CC=CCCCC(O)=O)C1C=CC(=O)CCCCC,C7H8N4O2,350.45499,1.8790,12,334.75,0,161.5769,1,(<I>E</I>)-7-[3-hydroxy-5-oxo-2-[(<I>E</I>)-3-oxooct-1-enyl]cyclopentyl]hept-5-enoic acid
"InChI=1S/C20H32O5/c1-2-3-6-9-15(21)12-13-17-16(18(22)14-19(17)23)10-7-4-5-8-11-20(24)25/h4,7,12-13,16-19,22-23H,2-3,5-6,8-11,14H2,1H3,(H,24,25)",LOLJEILMPWPILA-UHFFFAOYSA-N,OC1CC(O)C(C=CC(=O)CCCCC)C1CC=CCCCC(O)=O,C8H10N4O2,352.47098,2.4470,12,334.75,0,181.44615,1,"(<I>E</I>)-7-[3,5-dihydroxy-2-[(<I>E</I>)-3-oxooct-1-enyl]cyclopentyl]hept-5-enoic acid"
"InChI=1S/C20H30O3/c1-2-3-13-16-19(21)17-14-11-9-7-5-4-6-8-10-12-15-18-20(22)23/h4-5,8-11,14,17H,2-3,6-7,12-13,15-16,18H2,1H3,(H,22,23)",YGJTUEISKATQSM-UHFFFAOYSA-N,OC(=O)CCCC=CCC=CCC=CC=CC(=O)CCCCC,C8H14ClN5,318.457,4.6470,14,333.75,1,199.53687,0,"(5<I>E</I>,8<I>E</I>,11<I>E</I>,13<I>E</I>)-15-oxoicosa-5,8,11,13-tetraenoic acid"
"InChI=1S/C20H28O3/c1-2-3-4-5-6-10-13-18-17(15-16-19(18)21)12-9-7-8-11-14-20(22)23/h6-7,9-10,13,15-17H,2-5,8,11-12,14H2,1H3,(H,22,23)",VHRUMKCAEVRUBK-UHFFFAOYSA-N,O=C1C=CC(CC=CCCCC(O)=O)C1=CC=CCCCCC,C8H8O3,316.44098,4.0700,11,323.88,1,164.10495,1,(<I>E</I>)-7-[(5<I>Z</I>)-5-[(<I>E</I>)-oct-2-enylidene]-4-oxo-cyclopent-2-en-1-yl]hept-5-enoic acid