InChI,Key,smiles,Formula,Weight,logP(o/w),b_rotN,vol,lip_violation,ASA_P,Natural,ChemicalName
"InChI=1S/C11H18N2O7/c1-4(14)13-8-5(15)2-7(11(18)19)20-10(8)9(17)6(16)3-12/h2,5-6,8-10,15-17H,3,12H2,1H3,(H,13,14)(H,18,19)",VJTPBNUXDULDQD-UHFFFAOYSA-N,O1C(C(O)C(O)CN)C(NC(=O)C)C(O)C=C1C(O)=O,C10H11N3O3S,290.272,-3.0180,6,226.63,1,280.28326,0,"3-acetamido-2-(3-amino-1,2-dihydroxy-propyl)-4-hydroxy-3,4-dihydro-2<I>H</I>-pyran-6-carboxylic acid"
"InChI=1S/C17H17BrN4O/c1-22(2)10-9-19-17(23)11-5-3-7-13-15(11)21-16-12(18)6-4-8-14(16)20-13/h3-8H,9-10H2,1-2H3,(H,19,23)",QCANCQNKYBFYAC-UHFFFAOYSA-N,Brc1c2nc3c(nc2ccc1)cccc3C(=O)NCCN(C)C,C10H12O3,373.254,2.8995,5,314.63,0,126.86641,1,9-bromo-<I>N</I>-[2-(dimethylamino)ethyl]phenazine-1-carboxamide
"InChI=1S/C11H13N3O5/c15-2-5-8(16)9(17)10(19-5)4-1-12-7-6(4)13-3-14-11(7)18/h1,3,5,8-10,12,15-17H,2H2,(H,13,14,18)",WKDMPDYUJKSXBW-UHFFFAOYSA-N,O1C(C(O)C(O)C1CO)c1c2NC=NC(=O)c2[nH]c1,C12H7Cl3O2,267.241,-1.5700,2,212.63,0,273.33124,0,"7-[3,4-dihydroxy-5-(hydroxymethyl)tetrahydrofuran-2-yl]-1,5-dihydropyrrolo[3,2-d]pyrimidin-4-one"
"InChI=1S/C12H22N2O8/c1-5(15)14-8-6(16)3-12(21-2,11(19)20)22-10(8)9(18)7(17)4-13/h6-10,16-18H,3-4,13H2,1-2H3,(H,14,15)(H,19,20)",LMLQOZLLZRAPEM-UHFFFAOYSA-N,O1C(C(O)C(O)CN)C(NC(=O)C)C(O)CC1(OC)C(O)=O,C13H10N2O3S,322.314,-2.6180,7,244.63,1,293.76678,1,"5-acetamido-6-(3-amino-1,2-dihydroxy-propyl)-4-hydroxy-2-methoxy-tetrahydropyran-2-carboxylic acid"
"InChI=1S/C22H34O6/c1-8-20(5)11-13(24)16-21(6)14(25)9-10-19(3,4)17(21)15(26)18(27-12(2)23)22(16,7)28-20/h8,14-18,25-26H,1,9-11H2,2-7H3",SUZLHDUTVMZSEV-UHFFFAOYSA-N,O1C2(C(C3(C(C(O)C2OC(=O)C)C(CCC3O)(C)C)C)C(=O)CC1(C=C)C)C,C13H18O2,394.508,2.3840,3,310.75,0,115.40378,1,"(6,10-dihydroxy-3,4<I>a</I>,7,7,10<I>a</I>-pentamethyl-1-oxo-3-vinyl-2,5,6,6<I>a</I>,8,9,10,10<I>b</I>-octahydrobenzo[f]chromen-5-yl) acetate"
"InChI=1S/C17H11NO8/c1-24-15-8-4-10(18(22)23)13-9(17(20)21)5-12-16(26-6-25-12)14(13)7(8)2-3-11(15)19/h2-5,19H,6H2,1H3,(H,20,21)",UCLGCTLOEZZSLA-UHFFFAOYSA-N,O1c2cc(c3c(c4c(cc3[N+](=O)[O-])c(OC)c(O)cc4)c2OC1)C(O)=O,C13H9Cl3N2O,357.27399,3.3400,3,291.13,0,254.00775,0,"9-hydroxy-8-methoxy-6-nitro-naphtho[2,1-g][1,3]benzodioxole-5-carboxylic acid"
"InChI=1S/C8H11N5O/c1-5(14)2-13-4-12-6-7(9)10-3-11-8(6)13/h3-5,14H,2H2,1H3,(H2,9,10,11)",MJZYTEBKXLVLMY-UHFFFAOYSA-N,OC(Cn1c2ncnc(N)c2nc1)C,C14H12O3,193.20999,-0.5959,2,172.00,0,204.03055,1,1-(6-aminopurin-9-yl)propan-2-ol
"InChI=1S/C17H30NO5P/c1-14(2)7-5-8-15(3)9-6-10-16(4)11-12-23-18-17(19)13-24(20,21)22/h7,9,11H,5-6,8,10,12-13H2,1-4H3,(H,18,19)(H2,20,21,22)",JAOBYUCYSAOLHS-UHFFFAOYSA-N,P(O)(O)(=O)CC(=O)NOCC=C(CCC=C(CCC=C(C)C)C)C,C15H12N2O,359.40298,0.3780,12,324.25,0,212.94945,0,"[2-oxo-2-[[(2<I>E</I>,6<I>E</I>)-3,7,11-trimethyldodeca-2,6,10-trienoxy]amino]ethyl]phosphonic acid"
"InChI=1S/C19H22N2O5S/c1-12-6-4-5-7-15(12)10-17(22)21-16-8-13(2)19(14(3)9-16)27(25,26)20-11-18(23)24/h4-9,20H,10-11H2,1-3H3,(H,21,22)(H,23,24)",CJKKMQCZOLCXAM-UHFFFAOYSA-N,S(=O)(=O)(NCC(O)=O)c1c(cc(NC(=O)Cc2ccccc2C)cc1C)C,C4H4KNO4S,390.45999,2.5090,8,337.25,0,197.03371,1,"2-[[2,6-dimethyl-4-[[2-(o-tolyl)acetyl]amino]phenyl]sulfonylamino]acetic acid"
"InChI=1S/C33H38N2O6/c1-5-22(18-21-10-7-6-8-11-21)27-20-26(36)30(31(38)40-27)29(23-14-15-23)24-12-9-13-25(19-24)35-28(37)16-17-34-32(39)41-33(2,3)4/h6-15,19-20,22-23,29,38H,5,16-18H2,1-4H3,(H,34,39)(H, 35,37)",WFDCXQNJEMUSRF-UHFFFAOYSA-N,O1C(O)=C(C(C2C=C2)c2cc(NC(=O)CCNC(OC(C)(C)C)=O)ccc2)C(=O)C=C1C(Cc1ccccc1)CC,C7H6O3,558.67499,5.1560,15,519.75,2,142.26819,1,tert-butyl <I>N</I>-[3-[3-[[6-(1-benzylpropyl)-2-hydroxy-4-oxo-pyran-3-yl]-cycloprop-2-en-1-yl-methyl]anilino]-3-oxo-propyl]carbamate
"InChI=1S/C36H40N6O2/c1-41(2)19-5-21-43-29-13-7-25(8-14-29)35-37-31-17-11-27(23-33(31)39-35)28-12-18-32-34(24-28)40-36(38-32)26-9-15-30(16-10-26)44-22-6-20-42(3)4/h7-18,23-24H,5-6,19-22H2,1-4H3,(H,37,3 9)(H,38,40)",MZGMYDKOHYOXKR-UHFFFAOYSA-N,O(CCCN(C)C)c1ccc(cc1)-c1[nH]c2cc(ccc2n1)-c1cc2[nH]c(nc2cc1)-c1ccc(OCCCN(C)C)cc1,C7H8N4O2,588.75598,6.9120,13,591.00,2,187.41217,0,"3-[4-[6-[2-[4-[3-(dimethylamino)propoxy]phenyl]-3<I>H</I>-benzimidazol-5-yl]-1<I>H</I>-benzimidazol-2-yl]phenoxy]-<I>N</I>,<I>N</I>-dimethyl-propan-1-amine"
"InChI=1S/C11H17N2O8P/c1-6-10(15)8(3-13-9(4-14)11(16)17)7(2-12-6)5-21-22(18,19)20/h2,9,13-15H,3-5H2,1H3,(H,16,17)(H2,18,19,20)",ODVKKQWXKRZJLG-UHFFFAOYSA-N,P(OCc1cnc(C)c(O)c1CNC(C(O)=O)CO)(O)(O)=O,C8H10N4O2,336.237,-2.0780,8,253.25,1,330.2984,1,3-hydroxy-2-[[3-hydroxy-2-methyl-5-(phosphonooxymethyl)-4-pyridyl]methylamino]propanoic acid
"InChI=1S/C19H22N2O4S/c22-19(23)14-20-26(24,25)18-8-6-17(7-9-18)21-12-10-16(11-13-21)15-4-2-1-3-5-15/h1-9,16,20H,10-14H2,(H,22,23)",GNSLACGSDSJAIQ-UHFFFAOYSA-N,S(=O)(=O)(NCC(O)=O)c1ccc(N2CCC(CC2)c2ccccc2)cc1,C8H14ClN5,374.461,2.6860,6,328.13,0,190.96896,0,2-[[4-(4-phenyl-1-piperidyl)phenyl]sulfonylamino]acetic acid
"InChI=1S/C23H27BrFNO2/c1-3-14-26(2)15-6-4-5-7-16-28-20-12-13-21(22(25)17-20)23(27)18-8-10-19(24)11-9-18/h3,8-13,17H,1,4-7,14-16H2,2H3",CMYCCJYVZIMDFU-UHFFFAOYSA-N,Brc1ccc(cc1)C(=O)c1ccc(OCCCCCCN(CC=C)C)cc1F,C8H8O3,448.37598,6.6700,12,395.63,1,127.56045,1,[4-[6-[allyl(methyl)amino]hexoxy]-2-fluoro-phenyl]-(4-bromophenyl)methanone
"InChI=1S/C9H12NO5P/c11-9(10-7-16(12,13)14)15-6-8-4-2-1-3-5-8/h1-5H,6-7H2,(H,10,11)(H2,12,13,14)",WUNKRZNFNIYEPN-UHFFFAOYSA-N,P(O)(O)(=O)CNC(OCc1ccccc1)=O,C8H9NO2,245.17099,0.0040,6,196.88,0,207.01454,1,benzyloxycarbonylaminomethylphosphonic acid
"InChI=1S/C28H29F5N4O3/c1-34-22(14-17-8-3-2-4-9-17)26(40)37-13-7-12-23(37)25(39)36-21(24(38)27(29,30)28(31,32)33)15-18-16-35-20-11-6-5-10-19(18)20/h2-6,8-11,16,21-23,34-35H,7,12-15H2,1H3,(H,36,39)",WFJABZVISMTOSO-UHFFFAOYSA-N,FC(F)(C(=O)C(NC(=O)C1N(CCC1)C(=O)C(NC)Cc1ccccc1)Cc1c2c([nH]c1)cccc2)C(F)(F)F,C9H10O3,564.55499,4.5337,13,447.38,1,270.10532,0,"1-[2-(methylamino)-3-phenyl-propanoyl]-<I>N</I>-[3,3,4,4,4-pentafluoro-1-(1H-indol-3-ylmethyl)-2-oxo-butyl]pyrrolidine-2-carboxamide"
"InChI=1S/C3H6O2Se/c1-6-2-3(4)5/h2H2,1H3,(H,4,5)/p-1",UOULLTHLSZQUIN-UHFFFAOYSA-M,[Se](CC(=O)[O-])C,C9H8O2,152.034,-0.4820,2,86.50,0,85.860023,1,2-methylselanylacetate
"InChI=1S/C3H6O2Se/c1-6-2-3(4)5/h2H2,1H3,(H,4,5)",UOULLTHLSZQUIN-UHFFFAOYSA-N,[Se](CC(O)=O)C,C10H11ClO3,153.04199,-0.6030,2,86.50,0,93.463867,0,2-methylselanylacetic acid
"InChI=1S/C3H6O2Te/c1-6-2-3(4)5/h2H2,1H3,(H,4,5)/p-1",OKJWQADPGUWQAJ-UHFFFAOYSA-M,[Te](CC(=O)[O-])C,C10H11N3O3S,200.674,-0.4820,2,91.13,0,159.16275,1,2-methyltellanylacetate
"InChI=1S/C3H6O2Te/c1-6-2-3(4)5/h2H2,1H3,(H,4,5)",OKJWQADPGUWQAJ-UHFFFAOYSA-N,[Te](CC(O)=O)C,C10H12O3,201.68199,-0.6030,2,91.13,0,159.25856,1,2-methyltellanylacetic acid
"InChI=1S/C16H18N3O5P/c17-14(18)12-6-8-13(9-7-12)15(25(21,22)23)19-16(20)24-10-11-4-2-1-3-5-11/h1-9,15H,10H2,(H3,17,18)(H,19,20)(H2,21,22,23)",FSNDLCSOLUMYRH-UHFFFAOYSA-N,P(O)(O)(=O)C(NC(OCc1ccccc1)=O)c1ccc(cc1)C(N)=N,C12H7Cl3O2,363.31,1.2670,8,301.63,1,282.70044,0,[benzyloxycarbonylamino-(4-carbamimidoylphenyl)methyl]phosphonic acid
"InChI=1S/C21H27N5O2/c22-18(15-16-5-2-1-3-6-16)21(28)26-14-4-7-19(26)20(27)25-13-12-24-17-8-10-23-11-9-17/h1-3,5-6,8-11,18-19H,4,7,12-15,22H2,(H,23,24)(H,25,27)",GEIDRYBJURDUSW-UHFFFAOYSA-N,O=C(NCCNc1ccncc1)C1N(CCC1)C(=O)C(N)Cc1ccccc1,C13H10N2O3S,381.47998,0.5060,10,363.88,0,158.4326,1,1-(2-amino-3-phenyl-propanoyl)-<I>N</I>-[2-(4-pyridylamino)ethyl]pyrrolidine-2-carboxamide
"InChI=1S/C11H14IN5O2/c12-4-2-17(6-1-5(13)8(18)9(6)19)11-7(4)10(14)15-3-16-11/h2-3,5-6,8-9,18-19H,1,13H2,(H2,14,15,16)",NSXJHIFQIZKLGF-UHFFFAOYSA-N,Ic1c2c(ncnc2N)n(c1)C1CC(N)C(O)C1O,C13H18O2,375.16998,-0.3110,1,237.88,1,260.8786,0,"3-amino-5-(4-amino-5-iodo-pyrrolo[2,3-d]pyrimidin-7-yl)cyclopentane-1,2-diol"
"InChI=1S/C29H37N3O6/c1-15-10-11-29(17(3)13-16(2)27(38-29)18(4)26(33)20-7-6-12-31-20)37-22(15)14-23-32-25-21(36-23)9-8-19(30-5)24(25)28(34)35/h6-9,12,15-18,22,27,30-31H,10-11,13-14H2,1-5H3,(H,34,35)",HIYAVKIYRIFSCZ-UHFFFAOYSA-N,O1C(Cc2oc3c(n2)c(C(O)=O)c(NC)cc3)C(CCC12OC(C(C(=O)c1[nH]ccc1)C)C(CC2C)C)C,C13H9Cl3N2O,523.63,5.3980,7,460.13,2,200.47156,1,"5-(methylamino)-2-[[3,5,9-trimethyl-2-[1-methyl-2-oxo-2-(1<I>H</I>-pyrrol-2-yl)ethyl]-1,7-dioxaspiro[5.5]undecan-8-yl]methyl]-1,3-benzoxazole-4-carboxylic acid"
"InChI=1S/C12H13ClN2O2S/c13-11-5-1-4-10-9(11)3-2-6-12(10)18(16,17)15-8-7-14/h1-6,15H,7-8,14H2",ACIMRXKJKQGBGL-UHFFFAOYSA-N,Clc1c2c(ccc1)c(S(=O)(=O)NCCN)ccc2,C14H12O3,284.767,1.8950,4,225.25,0,153.084,1,<I>N</I>-(2-aminoethyl)-5-chloro-naphthalene-1-sulfonamide
"InChI=1S/C20H27NO3/c21-10-17-14-1-2-16(22)19(23)15(14)6-18(24-17)20-7-11-3-12(8-20)5-13(4-11)9-20/h1-2,11-13,17-18,22-23H,3-10,21H2",QLJOSZATCBCBDR-UHFFFAOYSA-N,O1C(Cc2c(ccc(O)c2O)C1CN)C12CC3CC(C1)CC(C2)C3,C15H12N2O,329.44,3.2380,2,270.13,0,153.90366,0,"3-(1-adamantyl)-1-(aminomethyl)isochromane-5,6-diol"
"InChI=1S/C9H12N2O/c1-2-9(6-10-4-1)12-7-8-3-5-11-8/h1-2,4,6,8,11H,3,5,7H2",XKFMBGWHHBCWCD-UHFFFAOYSA-N,O(CC1NCC1)c1cccnc1,C4H4KNO4S,164.20799,0.4490,3,163.50,0,76.422012,1,3-(azetidin-2-ylmethoxy)pyridine
"InChI=1S/C17H12Cl2N4O/c18-10-5-6-14-12(7-10)17(11-3-1-2-4-13(11)19)20-8-15-21-22-16(9-24)23(14)15/h1-7,24H,8-9H2",BHUYWUDMVCLHND-UHFFFAOYSA-N,Clc1ccccc1C1=NCc2n(-c3c1cc(Cl)cc3)c(nn2)CO,C7H6O3,359.216,3.7700,2,302.50,0,117.31446,0,"[8-chloro-6-(2-chlorophenyl)-4<I>H</I>-[1,2,4]triazolo[4,3-a][1,4]benzodiazepin-1-yl]methanol"
"InChI=1S/C29H37N3O6/c1-15-10-11-29(17(3)13-16(2)27(38-29)18(4)26(33)20-7-6-12-31-20)37-22(15)14-23-32-25-21(36-23)9-8-19(30-5)24(25)28(34)35/h6-9,12,15-18,22,27,30-31H,10-11,13-14H2,1-5H3,(H,34,35)/p- 1",HIYAVKIYRIFSCZ-UHFFFAOYSA-M,O1C(Cc2oc3c(n2)c(C(=O)[O-])c(NC)cc3)C(CCC12OC(C(C(=O)c1[nH]ccc1)C)C(CC2C)C)C,C8H10N4O2,522.62201,5.5190,7,460.13,1,197.23935,1,"5-(methylamino)-2-[[3,5,9-trimethyl-2-[1-methyl-2-oxo-2-(1<I>H</I>-pyrrol-2-yl)ethyl]-1,7-dioxaspiro[5.5]undecan-8-yl]methyl]-1,3-benzoxazole-4-carboxylate"
"InChI=1S/C44H56F2N8O6/c1-29(2)37(51-41(57)53(5)27-33-21-13-15-23-47-33)39(55)49-35(25-31-17-9-7-10-18-31)43(45,46)44(59,60)36(26-32-19-11-8-12-20-32)50-40(56)38(30(3)4)52-42(58)54(6)28-34-22-14-16-24- 48-34/h7-24,29-30,35-38,59-60H,25-28H2,1-6H3,(H,49,55)(",CGJKKYBHEOTRNM-UHFFFAOYSA-N,FC(F)(C(NC(=O)C(NC(=O)N(Cc1ncccc1)C)C(C)C)Cc1ccccc1)C(O)(O)C(NC(=O)C(NC(=O)N(Cc1ncccc1)C)C(C)C)Cc1ccccc1,C8H14ClN5,830.97797,5.0589,25,738.50,3,178.43294,0,"<I>N</I>-[1-benzyl-3,3-difluoro-2,2-dihydroxy-4-[[3-methyl-2-[[methyl(2-pyridylmethyl)carbamoyl]amino]butanoyl]amino]-5-phenyl-pentyl]-3-methyl-2-[[methyl(2-pyridylmethyl)carbamoyl]amino]butanamide"
"InChI=1S/C21H26O3/c1-16-17(2)21(24)19(18(3)20(16)23)14-12-10-8-6-4-5-7-9-11-13-15-22/h22H,5,7-10,12,14-15H2,1-3H3",WDEABJKSGGRCQA-UHFFFAOYSA-N,O=C1C(CCCCC#CCCCC#CCO)=C(C)C(=O)C(C)=C1C,C8H8O3,326.436,3.1220,10,337.25,0,200.79585,1,"2-(12-hydroxydodeca-5,10-diynyl)-3,5,6-trimethyl-1,4-benzoquinone"
"InChI=1S/C20H30N7O16P3/c21-9-2-1-3-26(4-9)19-15(30)13(28)10(40-19)5-38-45(34,35)43-46(36,37)39-6-11-14(29)16(42-44(31,32)33)20(41-11)27-8-25-12-17(22)23-7-24-18(12)27/h1,3-4,7-8,10-11,13-16,19-20,28-3 0H,2,5-6,21H2,(H,34,35)(H,36,37)(H2,22,23,24)(H2,31,32,",IMPUPYZMUDSKSF-UHFFFAOYSA-N,P(OCC1OC(N2C=C(N)CC=C2)C(O)C1O)(OP(OCC1OC(n2c3ncnc(N)c3nc2)C(OP(O)(O)=O)C1O)(O)=O)(O)=O,C8H9NO2,717.41498,-6.1789,12,490.75,3,672.51593,0,"[[5-(6-aminopurin-9-yl)-3-hydroxy-4-phosphonooxy-tetrahydrofuran-2-yl]methoxy-hydroxy-phosphoryl] [5-(3-amino-4<I>H</I>-pyridin-1-yl)-3,4-dihydroxy-tetrahydrofuran-2-yl]methyl hydrogen phosphate"
"InChI=1S/C8H18N6/c1-7(2,5(9)10)13-14-8(3,4)6(11)12/h1-4H3,(H3,9,10)(H3,11,12)/b14-13+",CCTFAOUOYLVUFG-BUHFOSPRSA-N,N(=N\C(C(N)=N)(C)C)/C(C(N)=N)(C)C,C9H10O3,198.274,0.7720,4,181.63,1,184.14276,1,"2-[(E)-(2-amino-2-imino-1,1-dimethyl-ethyl)azo]-2-methyl-propanamidine"
"InChI=1S/C18H21N7O4/c1-20-17(28)14-12(26)13(27)18(29-14)25-8-24-11-15(22-7-23-16(11)25)21-6-9-2-4-10(19)5-3-9/h2-5,7-8,12-14,18,26-27H,6,19H2,1H3,(H,20,28)(H,21,22,23)",LDYMCRRFCMRFKB-UHFFFAOYSA-N,O1C(C(=O)NC)C(O)C(O)C1n1c2ncnc(NCc3ccc(N)cc3)c2nc1,C9H8O2,399.41098,-1.0629,6,348.75,2,320.32803,1,"5-[6-[(4-aminophenyl)methylamino]purin-9-yl]-3,4-dihydroxy-<I>N</I>-methyl-tetrahydrofuran-2-carboxamide"
"InChI=1S/C14H18N6O/c15-14-18-12(17-9-2-3-9)11-13(19-14)20(7-16-11)10-4-1-8(5-10)6-21/h1,4,7-10,21H,2-3,5-6H2,(H3,15,17,18,19)",MCGSCOLBFJQGHM-UHFFFAOYSA-N,OCC1CC(n2c3nc(nc(NC4CC4)c3nc2)N)C=C1,C10H11ClO3,286.33899,0.4091,4,264.13,0,259.43729,0,[4-[2-amino-6-(cyclopropylamino)purin-9-yl]cyclopent-2-en-1-yl]methanol
"InChI=1S/C47H73NO17/c1-27-17-15-13-11-9-7-5-6-8-10-12-14-16-18-34(64-46-44(58)41(48)43(57)30(4)63-46)24-38-40(45(59)60)37(54)26-47(61,65-38)25-33(51)22-36(53)35(52)20-19-31(49)21-32(50)23-39(55)62-29( 3)28(2)42(27)56/h5-18,27-38,40-44,46,49-54,56-58,61H,19",APKFDSVGJQXUKY-UHFFFAOYSA-N,O1C(C)C(O)C(N)C(O)C1OC1CC2OC(O)(CC(O)C2C(O)=O)CC(O)CC(O)C(O)CCC(O)CC(O)CC(OC(C)C(C)C(O)C(C=CC=CC=CC=CC=CC=CC=C1)C)=O,C10H11N3O3S,924.091,2.6740,3,771.63,3,426.91913,1,"(4<I>E</I>,6<I>E</I>,8<I>Z</I>,10<I>E</I>,12<I>E</I>,14<I>E</I>,16<I>E</I>)-3-(4-amino-3,5-dihydroxy-6-methyl-tetrahydropyran-2-yl)oxy-19,25,27,30,31,33,35,37-octahydroxy-18,20,21-trimethyl-23-oxo-22, 39-dioxabicyclo[33.3.1]nonatriaconta-4,6,8,10,12,14,16-heptaene-38-carboxylic acid"
"InChI=1S/C22H19BrN6O/c23-16-3-1-2-14(10-16)17-11-18(28-22-20(17)21(24)26-13-27-22)15-4-5-19(25-12-15)29-6-8-30-9-7-29/h1-5,10-13H,6-9H2,(H2,24,26,27,28)",RQCXKDWOCUJWQZ-UHFFFAOYSA-N,Brc1cc(ccc1)-c1c2c(nc(c1)-c1ccc(nc1)N1CCOCC1)ncnc2N,C10H12O3,463.33899,3.0790,3,383.38,0,199.74384,0,"5-(3-bromophenyl)-7-(6-morpholino-3-pyridyl)pyrido[2,3-d]pyrimidin-4-amine"
"InChI=1S/C21H23NO3/c1-2-3-4-7-16-10-12-17(13-11-16)14-15-20(23)22-19-9-6-5-8-18(19)21(24)25/h5-6,8-15H,2-4,7H2,1H3,(H,22,23)(H,24,25)",GAMRBCZMOOMBSQ-UHFFFAOYSA-N,OC(=O)c1ccccc1NC(=O)C=Cc1ccc(cc1)CCCCC,C12H7Cl3O2,337.41901,5.2770,9,336.75,0,112.17741,1,2-[[(<I>E</I>)-3-(4-pentylphenyl)prop-2-enoyl]amino]benzoic acid
"InChI=1S/C25H45N3O16/c1-6-11(26-8-2-7(3-29)14(32)19(37)15(8)33)16(34)20(38)23(42-6)27-12-9(4-30)43-24(21(39)17(12)35)28-13-10(5-31)44-25(41)22(40)18(13)36/h2,6,8-41H,3-5H2,1H3",KNDCWOGFLAMFLD-UHFFFAOYSA-N,O1C(CO)C(NC2OC(C)C(NC3C=C(CO)C(O)C(O)C3O)C(O)C2O)C(O)C(O)C1NC1C(O)C(O)C(OC1CO)O,C13H10N2O3S,643.64001,-8.1260,9,471.88,3,498.56018,1,"5-[[5-[[3,4-dihydroxy-6-methyl-5-[[4,5,6-trihydroxy-3-(hydroxymethyl)cyclohex-2-en-1-yl]amino]tetrahydropyran-2-yl]amino]-3,4-dihydroxy-6-(hydroxymethyl)tetrahydropyran-2-yl]amino]-6-(hydroxymethyl)te trahydropyran-2,3,4-triol"
"InChI=1S/C22H36ClNO/c1-2-3-4-5-6-7-8-9-10-11-12-13-14-15-16-17-18-19-22(25)24-21-20-23/h6-7,9-10,12-13,15-16H,2-5,8,11,14,17-21H2,1H3,(H,24,25)",SCJNCDSAIRBRIA-UHFFFAOYSA-N,ClCCNC(=O)CCCC=CCC=CCC=CCC=CCCCCC,C13H18O2,365.98898,5.3560,17,376.63,1,207.23418,0,"(5<I>E</I>,8<I>E</I>,11<I>E</I>,14<I>E</I>)-<I>N</I>-(2-chloroethyl)icosa-5,8,11,14-tetraenamide"
"InChI=1S/C18H28N2O4/c1-5-6-18(23)20-14-7-8-17(16(9-14)13(4)21)24-11-15(22)10-19-12(2)3/h7-9,12,15,19,22H,5-6,10-11H2,1-4H3,(H,20,23)",GOEMGAFJFRBGGG-UHFFFAOYSA-N,O(CC(O)CNC(C)C)c1ccc(NC(=O)CCC)cc1C(=O)C,C13H9Cl3N2O,336.43201,1.7970,11,322.75,0,147.23598,1,<I>N</I>-[3-acetyl-4-[2-hydroxy-3-(isopropylamino)propoxy]phenyl]butanamide
"InChI=1S/C9H15NO2/c1-7(11)12-9-6-10-4-2-8(9)3-5-10/h8-9H,2-6H2,1H3",WRJPSSPFHGNBMG-UHFFFAOYSA-N,O(C(=O)C)C1C2CCN(C1)CC2,C14H12O3,169.224,0.6500,2,145.50,0,78.454979,0,quinuclidin-3-yl acetate
"InChI=1S/C10H10O8/c1-3(11)15-7-5-6(18-9(7)13)8(10(14)17-5)16-4(2)12/h5-8H,1-2H3",ZOZKYEHVNDEUCO-UHFFFAOYSA-N,O1C2C(OC(=O)C2OC(=O)C)C(OC(=O)C)C1=O,C15H12N2O,258.18201,-0.6020,4,198.38,0,208.86089,1,"(6-acetoxy-2,5-dioxo-3,3<I>a</I>,6,6<I>a</I>-tetrahydrofuro[3,2-b]furan-3-yl) acetate"
"InChI=1S/C21H18ClNO6/c1-12-16(10-20(26)29-11-19(24)25)17-9-15(28-2)7-8-18(17)23(12)21(27)13-3-5-14(22)6-4-13/h3-9H,10-11H2,1-2H3,(H,24,25)",FSQKKOOTNAMONP-UHFFFAOYSA-N,Clc1ccc(cc1)C(=O)n1c2c(cc(OC)cc2)c(CC(OCC(O)=O)=O)c1C,C4H4KNO4S,415.82898,4.1420,8,359.75,0,207.89247,1,2-[2-[1-(4-chlorobenzoyl)-5-methoxy-2-methyl-indol-3-yl]acetyl]oxyacetic acid
"InChI=1S/C4H10NO3PS/c1-4(6)5-9(7,8-2)10-3/h1-3H3,(H,5,6,7)",YASYVMFAVPKPKE-UHFFFAOYSA-N,S(P(OC)(=O)NC(=O)C)C,C7H6O3,183.168,-0.0860,4,130.00,0,172.44412,0,<I>N</I>-[methoxy(methylsulfanyl)phosphoryl]acetamide
"InChI=1S/C8H9NO2/c1-6(10)9-7-2-4-8(11)5-3-7/h2-5,11H,1H3,(H,9,10)",RZVAJINKPMORJF-UHFFFAOYSA-N,Oc1ccc(NC(=O)C)cc1,C7H8N4O2,151.16499,0.8890,2,142.00,0,100.22486,1,<I>N</I>-(4-hydroxyphenyl)acetamide
"InChI=1S/C15H13NO4/c1-10(17)16-11-6-8-12(9-7-11)20-15(19)13-4-2-3-5-14(13)18/h2-9,18H,1H3,(H,16,17)",TWIIVLKQFJBFPW-UHFFFAOYSA-N,O(C(=O)c1ccccc1O)c1ccc(NC(=O)C)cc1,C8H10N4O2,271.272,2.4820,5,255.00,0,130.17696,0,(4-acetamidophenyl) 2-hydroxybenzoate
"InChI=1S/C8H10AsNO5/c1-5(11)10-7-4-6(9(13,14)15)2-3-8(7)12/h2-4,12H,1H3,(H,10,11)(H2,13,14,15)",ODFJOVXVLFUVNQ-UHFFFAOYSA-N,[As](O)(O)(=O)c1cc(NC(=O)C)c(O)cc1,C8H14ClN5,275.09198,0.0890,3,175.88,0,234.00053,1,(3-acetamido-4-hydroxy-phenyl)arsonic acid
"InChI=1S/C4H6N4O3S2/c1-2(9)6-3-7-8-4(12-3)13(5,10)11/h1H3,(H2,5,10,11)(H,6,7,9)",BZKPWHYZMXOIDC-UHFFFAOYSA-N,s1c(nnc1S(=O)(=O)N)NC(=O)C,C8H8O3,222.24901,-0.9300,3,146.38,0,260.29568,1,"<I>N</I>-(5-sulfamoyl-1,3,4-thiadiazol-2-yl)acetamide"
"InChI=1S/C23H26ClN7O2/c1-3-19-21(22(25)28-23(26)27-19)17-9-10-18(24)20(13-17)29-30-31(11-12-33-15(2)32)14-16-7-5-4-6-8-16/h4-10,13H,3,11-12,14H2,1-2H3,(H4,25,26,27,28)/b30-29+",QKBISNUGIKKCIM-QVIHXGFCSA-N,Clc1ccc(cc1\N=N\N(Cc1ccccc1)CCOC(=O)C)-c1c(nc(nc1N)N)CC,C8H9NO2,467.961,2.1190,10,424.75,0,221.39871,0,"2-[benzyl-[(E)-[2-chloro-5-(2,4-diamino-6-ethyl-pyrimidin-5-yl)phenyl]azo]amino]ethyl acetate"
"InChI=1S/C14H20ClNO2/c1-4-12-8-6-7-11(3)14(12)16(10-18-5-2)13(17)9-15/h6-8H,4-5,9-10H2,1-3H3",VTNQPKFIQCLBDU-UHFFFAOYSA-N,ClCC(=O)N(COCC)c1c(cccc1C)CC,C9H10O3,269.772,3.2580,7,245.13,0,100.60529,1,2-chloro-<I>N</I>-(ethoxymethyl)-<I>N</I>-(2-ethyl-6-methyl-phenyl)acetamide
"InChI=1S/C15H20N2O4S/c1-11(18)12-7-9-14(10-8-12)22(20,21)17-15(19)16-13-5-3-2-4-6-13/h7-10,13H,2-6H2,1H3,(H2,16,17,19)",VGZSUPCWNCWDAN-UHFFFAOYSA-N,S(=O)(=O)(NC(=O)NC1CCCCC1)c1ccc(cc1)C(=O)C,C9H8O2,324.401,2.2310,6,272.50,0,167.31543,0,1-(4-acetylphenyl)sulfonyl-3-cyclohexyl-urea
"InChI=1S/C2H5NO2/c1-2(4)3-5/h5H,1H3,(H,3,4)",RRUDCFGSUDOHDG-UHFFFAOYSA-N,O=C(NO)C,C10H11ClO3,75.067001,-0.7580,1,61.50,0,139.04118,1,ethanehydroxamic acid
"InChI=1S/C31H57N5O9/c1-15(2)11-21(35-30(44)28(18(7)8)36-31(45)27(17(5)6)33-20(10)37)23(38)13-25(40)32-19(9)29(43)34-22(12-16(3)4)24(39)14-26(41)42/h15-19,21-24,27-28,38-39H,11-14H2,1-10H3,(H,32,40)(H, 33,37)(H,34,43)(H,35,44)(H,36,45)(H,41,42)",WKYBEGDEGRCZNF-UHFFFAOYSA-N,OC(C(NC(=O)C(NC(=O)C(NC(=O)C)C(C)C)C(C)C)CC(C)C)CC(=O)NC(C(=O)NC(C(O)CC(O)=O)CC(C)C)C,C10H11N3O3S,643.823,1.6680,25,554.50,3,307.25809,1,4-[2-[[4-[[2-[(2-acetamido-3-methyl-butanoyl)amino]-3-methyl-butanoyl]amino]-3-hydroxy-6-methyl-heptanoyl]amino]propanoylamino]-3-hydroxy-6-methyl-heptanoic acid
"InChI=1S/C30H37N5O13/c1-13(2)26(35-27(44)18(7-8-22(37)38)33-29(46)19(11-23(39)40)31-15(4)36)30(47)34-20(12-24(41)42)28(45)32-16-5-6-17-14(3)9-25(43)48-21(17)10-16/h5-6,9-10,13,18-20,26H,7-8,11-12H2,1- 4H3,(H,31,36)(H,32,45)(H,33,46)(H,34,47)(H,35,44)(H,37,",ALZSTTDFHZHSCA-UHFFFAOYSA-N,O1c2c(ccc(NC(=O)C(NC(=O)C(NC(=O)C(NC(=O)C(NC(=O)C)CC(O)=O)CCC(O)=O)C(C)C)CC(O)=O)c2)C(=CC1=O)C,C10H12O3,675.64801,-0.9270,22,554.50,3,514.9411,0,4-[(2-acetamido-3-carboxy-propanoyl)amino]-5-[[1-[[1-(carboxymethyl)-2-[(4-methyl-2-oxo-chromen-7-yl)amino]-2-oxo-ethyl]carbamoyl]-2-methyl-propyl]amino]-5-oxo-pentanoic acid
"InChI=1S/C8H18NO2/c1-7(11-8(2)10)6-9(3,4)5/h7H,6H2,1-5H3/q+1",NZWOPGCLSHLLPA-UHFFFAOYSA-N,O(C(C[N+](C)(C)C)C)C(=O)C,C12H7Cl3O2,160.237,0.2030,4,151.38,0,87.638969,1,2-acetoxypropyl(trimethyl)ammonium
"InChI=1S/C20H33NO3S/c1-15(2)8-6-9-16(3)10-7-11-17(4)12-13-25-14-19(20(23)24)21-18(5)22/h8,10,12,19H,6-7,9,11,13-14H2,1-5H3,(H,21,22)(H,23,24)",XTURYZYJYQRJDO-UHFFFAOYSA-N,S(CC(NC(=O)C)C(O)=O)CC=C(CCC=C(CCC=C(C)C)C)C,C13H10N2O3S,367.55399,2.2650,13,351.75,0,222.5602,0,"2-acetamido-3-[(2<I>E</I>,6<I>E</I>)-3,7,11-trimethyldodeca-2,6,10-trienyl]sulfanyl-propanoic acid"