InChI,Key,smiles,Formula,Weight,logP(o/w),b_rotN,vol,lip_violation,ASA_P,Natural,ChemicalName
"InChI=1S/C16H15N5O7S2/c1-2-6-4-29-14-10(13(25)21(14)11(6)15(26)27)19-12(24)9(20-28-3-8(22)23)7-5-30-16(17)18-7/h2,5,10,14H,1,3-4H2,(H2,17,18)(H,19,24)(H,22,23)(H,26,27)",OKBVVJOGVLARMR-UHFFFAOYSA-N,s1cc(nc1N)C(=NOCC(O)=O)C(=O)NC1C2SCC(C=C)=C(N2C1=O)C(O)=O,C12H7Cl3O2,453.45599,-0.3730,9,351.13,1,421.65726,0,7-[[(2<I>E</I>)-2-(2-aminothiazol-4-yl)-2-(carboxymethoxyimino)acetyl]amino]-8-oxo-3-vinyl-5-thia-1-azabicyclo[4.2.0]oct-2-ene-2-carboxylic acid
"InChI=1S/C26H34FNO5/c1-15(2)25-21(11-10-19(29)12-20(30)13-23(31)32)24(17-6-8-18(27)9-7-17)22(14-33-5)26(28-25)16(3)4/h6-11,15-16,19-20,29-30H,12-14H2,1-5H3,(H,31,32)",SEERZIQQUAZTOL-UHFFFAOYSA-N,Fc1ccc(cc1)-c1c(C=CC(O)CC(O)CC(O)=O)c(nc(C(C)C)c1COC)C(C)C,C13H10N2O3S,459.55798,4.7820,11,410.25,1,163.92535,1,"(<I>E</I>)-7-[4-(4-fluorophenyl)-2,6-diisopropyl-5-(methoxymethyl)-3-pyridyl]-3,5-dihydroxy-hept-6-enoic acid"
"InChI=1S/C12H19NO3/c1-2-3-4-5-6-7-8-10(14)11(15)9-12(13)16/h2-3,5-6,11,15H,4,7-9H2,1H3,(H2,13,16)",QEPYZBPOTYDXNA-UHFFFAOYSA-N,OC(C(=O)CCC=CCC=CC)CC(=O)N,C13H18O2,225.28799,-0.1910,8,217.38,0,214.81049,1,"(7<I>E</I>,10<I>E</I>)-3-hydroxy-4-oxo-dodeca-7,10-dienamide"
"InChI=1S/C21H25ClN2O3/c22-19-8-6-18(7-9-19)21(17-4-2-1-3-5-17)24-12-10-23(11-13-24)14-15-27-16-20(25)26/h1-9,21H,10-16H2,(H,25,26)",ZKLPARSLTMPFCP-UHFFFAOYSA-N,Clc1ccc(cc1)C(N1CCN(CC1)CCOCC(O)=O)c1ccccc1,C13H9Cl3N2O,388.89499,3.4040,8,356.50,0,147.86119,0,2-[2-[4-[(4-chlorophenyl)-phenyl-methyl]piperazin-1-yl]ethoxy]acetic acid
"InChI=1S/C18H26N4O6S/c1-5-26-17(24)28-8-7-15(29-18(25)27-6-2)12(3)22(11-23)10-14-9-20-13(4)21-16(14)19/h9,11H,5-8,10H2,1-4H3,(H2,19,20,21)",YBROOZNJUDHTGE-UHFFFAOYSA-N,S(C(CCOC(OCC)=O)=C(N(Cc1cnc(nc1N)C)C=O)C)C(OCC)=O,C14H12O3,426.49399,1.9630,14,369.25,0,278.80487,1,ethyl [(<I>Z</I>)-2-[(4-amino-2-methyl-pyrimidin-5-yl)methyl-formyl-amino]-1-(2-ethoxycarbonyloxyethyl)prop-1-enyl]sulfanylformate
"InChI=1S/C17H23NO4/c18-11-13-1-6-14(7-2-13)17(21)22-15-8-3-12(4-9-15)5-10-16(19)20/h3-4,8-9,13-14H,1-2,5-7,10-11,18H2,(H,19,20)",FHRSHSOEWXUORL-UHFFFAOYSA-N,O(C(=O)C1CCC(CC1)CN)c1ccc(cc1)CCC(O)=O,C15H12N2O,305.37399,2.2980,7,280.88,0,190.10188,0,3-[4-[4-(aminomethyl)cyclohexanecarbonyl]oxyphenyl]propanoic acid
"InChI=1S/C19H42N/c1-5-6-7-8-9-10-11-12-13-14-15-16-17-18-19-20(2,3)4/h5-19H2,1-4H3/q+1",RLGQACBPNDBWTB-UHFFFAOYSA-N,[N+](CCCCCCCCCCCCCCCC)(C)(C)C,C4H4KNO4S,284.552,6.5470,15,313.00,1,55.930843,1,hexadecyl(trimethyl)ammonium
"InChI=1S/C16H34O/c1-2-3-4-5-6-7-8-9-10-11-12-13-14-15-16-17/h17H,2-16H2,1H3",BXWNKGSJHAJOGX-UHFFFAOYSA-N,OCCCCCCCCCCCCCCCC,C7H6O3,242.44699,6.2970,14,258.50,1,60.814518,1,hexadecan-1-ol
"InChI=1S/C21H38N/c1-2-3-4-5-6-7-8-9-10-11-12-13-14-16-19-22-20-17-15-18-21-22/h15,17-18,20-21H,2-14,16,19H2,1H3/q+1",NEUSVAOJNUQRTM-UHFFFAOYSA-N,[n+]1(ccccc1)CCCCCCCCCCCCCCCC,C7H8N4O2,304.54199,8.2600,15,336.13,1,30.751839,0,1-hexadecylpyridin-1-ium
"InChI=1S/C10H17NOS/c1-8-12-10(7-13-8)6-11-4-2-9(10)3-5-11/h8-9H,2-7H2,1H3",WUTYZMFRCNBCHQ-UHFFFAOYSA-N,S1CC2(OC1C)C1CCN(C2)CC1,C8H10N4O2,199.31799,1.4800,0,152.88,0,81.8386,1,"2-methylspiro[1,3-oxathiolane-5,3'-quinuclidine]"
"InChI=1S/C23H25F3N4O5/c1-30-12-20(23(24,25)26)29-22(30)14-2-4-16(5-3-14)35-13-15(31)11-28-8-9-34-17-6-7-19(32)18(10-17)21(27)33/h2-7,10,12,15,28,31-32H,8-9,11,13H2,1H3,(H2,27,33)",GKJZEKSHCJELPL-UHFFFAOYSA-N,FC(F)(F)c1nc(n(c1)C)-c1ccc(OCC(O)CNCCOc2cc(C(=O)N)c(O)cc2)cc1,C8H14ClN5,494.47,2.1548,12,423.38,0,378.95877,0,2-hydroxy-5-[2-[[2-hydroxy-3-[4-[1-methyl-4-(trifluoromethyl)imidazol-2-yl]phenoxy]propyl]amino]ethoxy]benzamide
"InChI=1S/C31H51N5O5/c1-20(2)28(32-22(5)37)30(40)34-26(17-24-13-9-7-10-14-24)27(39)19-36(18-25-15-11-8-12-16-25)35-31(41)29(21(3)4)33-23(6)38/h7,9-10,13-14,20-21,25-29,39H,8,11-12,15-19H2,1-6H3,(H,32,3 7)(H,33,38)(H,34,40)(H,35,41)",JNBVLGDICHLLTN-UHFFFAOYSA-N,OC(C(NC(=O)C(NC(=O)C)C(C)C)Cc1ccccc1)CN(NC(=O)C(NC(=O)C)C(C)C)CC1CCCCC1,C8H8O3,573.77899,3.0350,19,514.13,1,135.2793,1,2-acetamido-<I>N</I>-[3-[[(2-acetamido-3-methyl-butanoyl)amino]-(cyclohexylmethyl)amino]-1-benzyl-2-hydroxy-propyl]-3-methyl-butanamide
"InChI=1S/C14H21N3O3/c1-14(2,3)15-7-9(18)8-20-11-6-4-5-10-12(11)17-13(19)16-10/h4-6,9,15,18H,7-8H2,1-3H3,(H2,16,17,19)",UMQUQWCJKFOUGV-UHFFFAOYSA-N,O(CC(O)CNC(C)(C)C)c1c2NC(=O)Nc2ccc1,C8H9NO2,279.34,0.7250,6,253.50,0,163.65477,1,"4-[3-(tert-butylamino)-2-hydroxy-propoxy]-1,3-dihydrobenzimidazol-2-one"
"InChI=1S/C15H11Cl2NOS/c16-9-5-6-13-11(7-9)15(20-8-14(19)18-13)10-3-1-2-4-12(10)17/h1-7,15H,8H2,(H,18,19)",KQEPIRKXSUIUTH-UHFFFAOYSA-N,Clc1ccccc1C1SCC(=O)Nc2c1cc(Cl)cc2,C9H10O3,324.23099,4.5710,1,260.63,0,105.26765,0,"7-chloro-5-(2-chlorophenyl)-1,5-dihydro-4,1-benzothiazepin-2-one"
"InChI=1S/C17H17F3N4/c1-22-7-9-23(10-8-22)16-15-3-2-6-24(15)14-5-4-12(17(18,19)20)11-13(14)21-16/h2-6,11H,7-10H2,1H3",LXFHSCDLMBZYKY-UHFFFAOYSA-N,FC(F)(F)c1cc2N=C(N3CCN(CC3)C)c3n(-c2cc1)ccc3,C9H8O2,334.345,2.9778,2,293.00,0,185.00613,1,"4-(4-methylpiperazin-1-yl)-7-(trifluoromethyl)pyrrolo[1,2-a]quinoxaline"
"InChI=1S/C13H8ClN5O/c14-7-3-4-9-8(6-7)12-17-11(10-2-1-5-20-10)18-19(12)13(15)16-9/h1-6H,(H2,15,16)",MSJODEOZODDVGW-UHFFFAOYSA-N,Clc1cc2-c3n(nc(n3)-c3occc3)C(=Nc2cc1)N,C10H11ClO3,285.694,1.4740,1,247.50,0,132.76866,0,"9-chloro-2-(2-furyl)-[1,2,4]triazolo[1,5-c]quinazolin-5-amine"
"InChI=1S/C23H29N7O6/c1-2-25-21(35)18-16(33)17(34)22(36-18)30-11-27-15-19(24)28-23(29-20(15)30)26-10-9-13-5-3-12(4-6-13)7-8-14(31)32/h3-6,11,16-18,22,33-34H,2,7-10H2,1H3,(H,25,35)(H,31,32)(H3,24,26,28, 29)",PAOANWZGLPPROA-UHFFFAOYSA-N,O1C(C(=O)NCC)C(O)C(O)C1n1c2nc(nc(N)c2nc1)NCCc1ccc(cc1)CCC(O)=O,C10H11N3O3S,499.52798,-0.4139,11,432.50,2,359.56329,1,"3-[4-[2-[[6-amino-9-[5-(ethylcarbamoyl)-3,4-dihydroxy-tetrahydrofuran-2-yl]purin-2-yl]amino]ethyl]phenyl]propanoic acid"
"InChI=1S/C16H23N5O4/c22-6-10-12(23)13(24)16(25-10)21-8-19-11-14(17-7-18-15(11)21)20-9-4-2-1-3-5-9/h7-10,12-13,16,22-24H,1-6H2,(H,17,18,20)",SZBULDQSDUXAPJ-UHFFFAOYSA-N,O1C(CO)C(O)C(O)C1n1c2ncnc(NC3CCCCC3)c2nc1,C10H12O3,349.39099,-0.0209,4,297.88,0,232.38101,1,"2-[6-(cyclohexylamino)purin-9-yl]-5-(hydroxymethyl)tetrahydrofuran-3,4-diol"
"InChI=1S/C27H39N5O6/c1-17(2)23-27(37)32-15-9-13-21(32)26(36)28-19(12-7-4-8-14-22(33)31-38)24(34)29-20(25(35)30-23)16-18-10-5-3-6-11-18/h3,5-6,10-11,17,19-21,23,38H,4,7-9,12-16H2,1-2H3,(H,28,36)(H,29,3 4)(H,30,35)(H,31,33)",RAYRATRJVRXVPI-UHFFFAOYSA-N,O=C1NC(C(C)C)C(=O)N2C(CCC2)C(=O)NC(CCCCCC(=O)NO)C(=O)NC1Cc1ccccc1,C13H10N2O3S,529.638,1.5300,10,447.50,2,214.34836,1,"6-(6-benzyl-3-isopropyl-2,5,8,11-tetraoxo-1,4,7,10-tetrazabicyclo[10.3.0]pentadecan-9-yl)hexanehydroxamic acid"
"InChI=1S/C29H43N5O7/c1-4-18(2)25-29(39)34-16-8-10-23(34)28(38)30-21(9-6-5-7-11-24(35)33-40)26(36)31-22(27(37)32-25)17-19-12-14-20(41-3)15-13-19/h12-15,18,21-23,25,40H,4-11,16-17H2,1-3H3,(H,30,38)(H,31 ,36)(H,32,37)(H,33,35)",NXTMDUWTQZXRRK-UHFFFAOYSA-N,O(C)c1ccc(cc1)CC1NC(=O)C(NC(=O)C2N(CCC2)C(=O)C(NC1=O)C(CC)C)CCCCCC(=O)NO,C13H18O2,573.69098,1.9280,12,487.50,2,243.87155,0,"6-[6-[(4-methoxyphenyl)methyl]-2,5,8,11-tetraoxo-3-sec-butyl-1,4,7,10-tetrazabicyclo[10.3.0]pentadecan-9-yl]hexanehydroxamic acid"
"InChI=1S/C27H39N5O5/c1-17(2)23-27(37)32-15-9-13-22(32)26(36)29-20(12-7-8-14-28-18(3)33)24(34)30-21(25(35)31-23)16-19-10-5-4-6-11-19/h4-6,10-11,17,20-23H,7-9,12-16H2,1-3H3,(H,28,33)(H,29,36)(H,30,34)(H ,31,35)",UQSTTXMXVKEXGO-UHFFFAOYSA-N,O=C1NC(C(C)C)C(=O)N2C(CCC2)C(=O)NC(CCCCNC(=O)C)C(=O)NC1Cc1ccccc1,C13H9Cl3N2O,513.63898,1.4270,9,444.63,1,166.75679,1,"<I>N</I>-[4-(6-benzyl-3-isopropyl-2,5,8,11-tetraoxo-1,4,7,10-tetrazabicyclo[10.3.0]pentadecan-9-yl)butyl]acetamide"
"InChI=1S/C27H38N4O6/c1-17(2)23-27(37)31-15-9-13-21(31)26(36)28-19(12-7-4-8-14-22(32)33)24(34)29-20(25(35)30-23)16-18-10-5-3-6-11-18/h3,5-6,10-11,17,19-21,23H,4,7-9,12-16H2,1-2H3,(H,28,36)(H,29,34)(H,3 0,35)(H,32,33)",QLEJPHGLYHETLL-UHFFFAOYSA-N,O=C1NC(C(C)C)C(=O)N2C(CCC2)C(=O)NC(CCCCCC(O)=O)C(=O)NC1Cc1ccccc1,C14H12O3,514.62299,2.2090,9,439.38,1,178.46681,1,"6-(6-benzyl-3-isopropyl-2,5,8,11-tetraoxo-1,4,7,10-tetrazabicyclo[10.3.0]pentadecan-9-yl)hexanoic acid"
"InChI=1S/C28H41N5O6/c1-18(2)24-28(38)33-16-10-14-22(33)27(37)29-20(13-8-3-4-9-15-23(34)32-39)25(35)30-21(26(36)31-24)17-19-11-6-5-7-12-19/h5-7,11-12,18,20-22,24,39H,3-4,8-10,13-17H2,1-2H3,(H,29,37)(H, 30,35)(H,31,36)(H,32,34)",UTJXWQWHESJTLG-UHFFFAOYSA-N,O=C1NC(C(C)C)C(=O)N2C(CCC2)C(=O)NC(CCCCCCC(=O)NO)C(=O)NC1Cc1ccccc1,C15H12N2O,543.66498,1.9720,11,463.50,2,214.75294,0,"7-(6-benzyl-3-isopropyl-2,5,8,11-tetraoxo-1,4,7,10-tetrazabicyclo[10.3.0]pentadecan-9-yl)heptanehydroxamic acid"
"InChI=1S/C26H37N5O6/c1-16(2)22-26(36)31-14-8-12-20(31)25(35)27-18(11-6-7-13-21(32)30-37)23(33)28-19(24(34)29-22)15-17-9-4-3-5-10-17/h3-5,9-10,16,18-20,22,37H,6-8,11-15H2,1-2H3,(H,27,35)(H,28,33)(H,29, 34)(H,30,32)",LJVQTFZWFIZJCN-UHFFFAOYSA-N,O=C1NC(C(C)C)C(=O)N2C(CCC2)C(=O)NC(CCCCC(=O)NO)C(=O)NC1Cc1ccccc1,C4H4KNO4S,515.61096,1.0880,9,434.88,2,240.09959,1,"5-(6-benzyl-3-isopropyl-2,5,8,11-tetraoxo-1,4,7,10-tetrazabicyclo[10.3.0]pentadecan-9-yl)pentanehydroxamic acid"
"InChI=1S/C20H36O2/c1-2-22-20(21)18-12-10-8-6-4-3-5-7-9-11-15-19-16-13-14-17-19/h13,16,19H,2-12,14-15,17-18H2,1H3",FDGHZUQYDACRTA-UHFFFAOYSA-N,O(C(=O)CCCCCCCCCCCCC1CCC=C1)CC,C7H6O3,308.50598,6.1170,15,322.63,1,78.89669,0,ethyl 13-cyclopent-2-en-1-yltridecanoate
"InChI=1S/C21H17NO4/c1-23-17-6-5-12-13-4-3-11-7-18-19(26-10-25-18)9-14(11)20(13)16(22)8-15(12)21(17)24-2/h3-9H,10,22H2,1-2H3/p+1",DAEYWEQVPPRWDG-UHFFFAOYSA-O,O1c2c(OC1)cc1c(c3c(c4c(cc3[NH3+])c(OC)c(OC)cc4)cc1)c2,C7H8N4O2,348.37799,4.3327,2,324.50,0,174.12317,1,"(1,2-dimethoxyphenanthro[1,2-f][1,3]benzodioxol-12-yl)ammonium"
"InChI=1S/C21H17NO4/c1-23-17-6-5-12-13-4-3-11-7-18-19(26-10-25-18)9-14(11)20(13)16(22)8-15(12)21(17)24-2/h3-9H,10,22H2,1-2H3",DAEYWEQVPPRWDG-UHFFFAOYSA-N,O1c2c(OC1)cc1c(c3c(c4c(cc3N)c(OC)c(OC)cc4)cc1)c2,C8H10N4O2,347.37,4.3327,2,324.50,0,163.60846,1,"1,2-dimethoxyphenanthro[1,2-f][1,3]benzodioxol-12-amine"
"InChI=1S/C21H18NO4/c1-22-10-16-13(6-7-17(23-2)21(16)24-3)14-5-4-12-8-18-19(26-11-25-18)9-15(12)20(14)22/h4-10H,11H2,1-3H3/q+1",LLEJIEBFSOEYIV-UHFFFAOYSA-N,O1c2c(OC1)cc1c(c3[n+](cc4c(c3cc1)ccc(OC)c4OC)C)c2,C8H14ClN5,348.37799,4.8337,2,329.38,0,154.17908,0,"1,2-dimethoxy-12-methyl-[1,3]benzodioxolo[5,6-c]phenanthridin-12-ium"
"InChI=1S/C7H9NO5/c9-3-1-4(6(10)11)8-5(2-3)7(12)13/h4-5,8H,1-2H2,(H,10,11)(H,12,13)",GBSHZANWEXIZRX-UHFFFAOYSA-N,O=C1CC(NC(C1)C(O)=O)C(O)=O,C8H8O3,187.151,-1.4700,2,145.63,0,242.39034,1,"4-oxopiperidine-2,6-dicarboxylic acid"
"InChI=1S/C25H42O4/c1-15(7-8-22(28)29)18-5-4-6-19-23-20(10-12-25(18,19)3)24(2)11-9-17(26)13-16(24)14-21(23)27/h15-21,23,26-27H,4-14H2,1-3H3,(H,28,29)",RPIGSUPVOHQQIF-UHFFFAOYSA-N,OC1C2C3CCCC(C(CCC(O)=O)C)C3(CCC2C2(C(C1)CC(O)CC2)C)C,C8H9NO2,406.60699,5.3560,4,340.00,0,165.73285,0,"4-(5,8-dihydroxy-10<I>a</I>,12<I>a</I>-dimethyl-1,2,3,4,4<I>a</I>,4<I>b</I>,5,6,6<I>a</I>,7,8,9,10,10<I>b</I>,11,12-hexadecahydrochrysen-1-yl)pentanoic acid"
"InChI=1S/C28H38N4O6/c1-28(2)27(37)30-20(16-18-10-5-3-6-11-18)26(36)32-15-9-13-21(32)25(35)29-19(24(34)31-28)12-7-4-8-14-22(33)23-17-38-23/h3,5-6,10-11,19-21,23H,4,7-9,12-17H2,1-2H3,(H,29,35)(H,30,37)( H,31,34)",SGYJGGKDGBXCNY-UHFFFAOYSA-N,O1CC1C(=O)CCCCCC1NC(=O)C2N(CCC2)C(=O)C(NC(=O)C(NC1=O)(C)C)Cc1ccccc1,C9H10O3,526.63397,1.3810,9,449.25,1,176.14049,1,"3-benzyl-6,6-dimethyl-9-[6-(oxiran-2-yl)-6-oxo-hexyl]-1,4,7,10-tetrazabicyclo[10.3.0]pentadecane-2,5,8,11-tetrone"
"InChI=1S/C2H3Cl3O2/c3-2(4,5)1(6)7/h1,6-7H",RNFNDJAIBTYOQL-UHFFFAOYSA-N,ClC(Cl)(Cl)C(O)O,C9H8O2,165.403,0.6081,1,93.63,0,256.80954,1,"2,2,2-trichloroethane-1,1-diol"
"InChI=1S/C14H19Cl2NO2/c15-8-10-17(11-9-16)13-6-4-12(5-7-13)2-1-3-14(18)19/h4-7H,1-3,8-11H2,(H,18,19)",JCKYGMPEJWAADB-UHFFFAOYSA-N,ClCCN(CCCl)c1ccc(cc1)CCCC(O)=O,C10H11ClO3,304.21698,3.2240,9,264.13,0,252.20572,0,4-[4-[bis(2-chloroethyl)amino]phenyl]butanoic acid
"InChI=1S/C15H16Cl2N2O8/c16-14(17)15(24)18-10(7-27-12(22)6-5-11(20)21)13(23)8-1-3-9(4-2-8)19(25)26/h1-4,10,13-14,23H,5-7H2,(H,18,24)(H,20,21)",LIRCDOVJWUGTMW-UHFFFAOYSA-N,ClC(Cl)C(=O)NC(C(O)c1ccc([N+](=O)[O-])cc1)COC(=O)CCC(O)=O,C10H11N3O3S,423.20499,1.2404,12,324.25,0,412.52695,1,"4-[2-[(2,2-dichloroacetyl)amino]-3-hydroxy-3-(4-nitrophenyl)propoxy]-4-oxo-butanoic acid"
"InChI=1S/C18H21ClN2/c1-20-11-13-21(14-12-20)18(15-5-3-2-4-6-15)16-7-9-17(19)10-8-16/h2-10,18H,11-14H2,1H3",WFNAKBGANONZEQ-UHFFFAOYSA-N,Clc1ccc(cc1)C(N1CCN(CC1)C)c1ccccc1,C10H12O3,300.83301,3.9810,3,291.00,0,47.414371,0,1-[(4-chlorophenyl)-phenyl-methyl]-4-methyl-piperazine
"InChI=1S/C16H14ClN3O/c1-18-15-10-20(21)16(11-5-3-2-4-6-11)13-9-12(17)7-8-14(13)19-15/h2-9,21H,10H2,1H3/b18-15-",BUCORZSTKDOEKQ-SDXDJHTJSA-N,ClC=1C=CC2=N\C(=N/C)\CN(O)C(=C2C=1)c1ccccc1,C13H10N2O3S,299.76099,2.4340,1,271.13,0,99.232925,1,"(<I>Z</I>)-7-chloro-4-hydroxy-<I>N</I>-methyl-5-phenyl-3<I>H</I>-1,4-benzodiazepin-2-imine"
"InChI=1S/C22H30Cl2N10/c23-15-5-9-17(10-6-15)31-21(27)33-19(25)29-13-3-1-2-4-14-30-20(26)34-22(28)32-18-11-7-16(24)8-12-18/h5-12H,1-4,13-14H2,(H5,25,27,29,31,33)(H5,26,28,30,32,34)",GHXZTYHSJHQHIJ-UHFFFAOYSA-N,Clc1ccc(NC(NC(NCCCCCCNC(NC(Nc2ccc(Cl)cc2)=N)=N)=N)=N)cc1,C13H18O2,505.45798,6.2040,17,446.25,2,273.59888,0,1-(4-chlorophenyl)-3-[<I>N</I>-[6-[[<I>N</I>-[<I>N</I>-(4-chlorophenyl)carbamimidoyl]carbamimidoyl]amino]hexyl]carbamimidoyl]guanidine
"InChI=1S/C23H29ClO4/c1-13(25)23(28-14(2)26)10-7-18-16-12-20(24)19-11-15(27)5-8-21(19,3)17(16)6-9-22(18,23)4/h11-12,16-18H,5-10H2,1-4H3",QMBJSIBWORFWQT-UHFFFAOYSA-N,ClC=1C2=CC(=O)CCC2(C2C(C3CCC(OC(=O)C)(C(=O)C)C3(CC2)C)C=1)C,C13H9Cl3N2O,404.93399,3.8810,3,320.50,0,104.94383,1,"(17-acetyl-6-chloro-10,13-dimethyl-3-oxo-2,8,9,11,12,14,15,16-octahydro-1<I>H</I>-cyclopenta[a]phenanthren-17-yl) acetate"
"InChI=1S/C5H11N2O2.ClH.Hg/c1-4(9-2)3-7-5(6)8;;/h4H,1,3H2,2H3,(H3,6,7,8);1H;/q;;+1",BJFGVYCULWBXKF-UHFFFAOYSA-N,[Hg](Cl)CC(OC)CNC(=[OH+])N,C14H12O3,368.20798,-0.5760,6,149.38,0,275.17517,0,[3-[[amino(oxoniumylidene)methyl]amino]-2-methoxy-propyl]-chloro-mercury
"InChI=1S/C5H11N2O2.ClH.Hg/c1-4(9-2)3-7-5(6)8;;/h4H,1,3H2,2H3,(H3,6,7,8);1H;/q;;+1/p-1",BJFGVYCULWBXKF-UHFFFAOYSA-M,[Hg](Cl)CC(OC)CNC(=O)N,C15H12N2O,367.19998,-0.5760,6,148.13,0,234.89449,1,chloro-(2-methoxy-3-ureido-propyl)mercury
"InChI=1S/C11H12ClNO3S/c1-13-10(14)6-7-17(15,16)11(13)8-2-4-9(12)5-3-8/h2-5,11H,6-7H2,1H3",WEQAYVWKMWHEJO-UHFFFAOYSA-N,Clc1ccc(cc1)C1S(=O)(=O)CCC(=O)N1C,C4H4KNO4S,273.73999,1.0880,1,210.50,0,120.61136,1,"2-(4-chlorophenyl)-3-methyl-1,1-dioxo-1,3-thiazinan-4-one"
"InChI=1S/C11H8ClNO2/c1-7(14)15-10-5-4-9(12)8-3-2-6-13-11(8)10/h2-6H,1H3",JSJOTZXJKCXWQC-UHFFFAOYSA-N,Clc1c2c(nccc2)c(OC(=O)C)cc1,C7H6O3,221.64299,2.6290,2,198.63,0,72.385994,0,(5-chloro-8-quinolyl) acetate
"InChI=1S/C18H26ClN3/c1-4-22(5-2)12-6-7-14(3)21-17-10-11-20-18-13-15(19)8-9-16(17)18/h8-11,13-14H,4-7,12H2,1-3H3,(H,20,21)",WHTVZRBIWZFKQO-UHFFFAOYSA-N,Clc1cc2nccc(NC(CCCN(CC)CC)C)c2cc1,C7H8N4O2,319.88,4.2870,8,309.38,0,38.064281,1,"<I>N</I>4-(7-chloro-4-quinolyl)-<I>N</I>1,<I>N</I>1-diethyl-pentane-1,4-diamine"
"InChI=1S/C7H6ClN3O4S2/c8-4-1-5-7(2-6(4)16(9,12)13)17(14,15)11-3-10-5/h1-3H,(H,10,11)(H2,9,12,13)",JBMKAUGHUNFTOL-UHFFFAOYSA-N,Clc1cc2NC=NS(=O)(=O)c2cc1S(=O)(=O)N,C8H10N4O2,295.72699,0.4690,1,186.63,0,268.63629,0,"6-chloro-1,1-dioxo-4<I>H</I>-1&lambda;<sup>6</sup>,2,4-benzothiadiazine-7-sulfonamide"
"InChI=1S/C23H21ClO3/c1-25-19-11-7-16(8-12-19)22(18-5-4-6-21(15-18)27-3)23(24)17-9-13-20(26-2)14-10-17/h4-15H,1-3H3",FAQJBABGJLIGQJ-UHFFFAOYSA-N,ClC(=C(c1cc(OC)ccc1)c1ccc(OC)cc1)c1ccc(OC)cc1,C8H14ClN5,380.871,6.8570,6,357.50,1,114.08464,1,"1-[(<I>E</I>)-2-chloro-1,2-bis(4-methoxyphenyl)vinyl]-3-methoxy-benzene"
"InChI=1S/C9H5Cl2NO/c10-6-4-7(11)9(13)8-5(6)2-1-3-12-8/h1-4,13H",WDFKMLRRRCGAKS-UHFFFAOYSA-N,Clc1cc(Cl)c2c(nccc2)c1O,C8H8O3,214.05099,3.0150,0,174.00,0,60.564991,1,"5,7-dichloroquinolin-8-ol"
"InChI=1S/C10H12ClNO4/c11-7-1-3-9(4-2-7)15-5-8(13)6-16-10(12)14/h1-4,8,13H,5-6H2,(H2,12,14)",SKPLBLUECSEIFO-UHFFFAOYSA-N,Clc1ccc(OCC(O)COC(=O)N)cc1,C8H9NO2,245.66199,1.0640,6,205.25,0,173.77748,0,[3-(4-chlorophenoxy)-2-hydroxy-propyl] carbamate
"InChI=1S/C16H19ClN2/c1-19(2)12-10-15(16-5-3-4-11-18-16)13-6-8-14(17)9-7-13/h3-9,11,15H,10,12H2,1-2H3",SOYKEARSMXGVTM-UHFFFAOYSA-N,Clc1ccc(cc1)C(CCN(C)C)c1ncccc1,C9H10O3,274.79498,3.4510,5,269.13,0,58.678207,1,"3-(4-chlorophenyl)-<I>N</I>,<I>N</I>-dimethyl-3-(2-pyridyl)propan-1-amine"
"InChI=1S/C17H19ClN2S/c1-19(2)10-5-11-20-14-6-3-4-7-16(14)21-17-9-8-13(18)12-15(17)20/h3-4,6-9,12H,5,10-11H2,1-2H3",ZPEIMTDSQAKGNT-UHFFFAOYSA-N,Clc1cc2N(c3c(Sc2cc1)cccc3)CCCN(C)C,C9H8O2,318.87201,4.6240,4,292.25,0,88.679741,0,"3-(2-chlorophenothiazin-10-yl)-<I>N</I>,<I>N</I>-dimethyl-propan-1-amine"
"InChI=1S/C10H13ClN2O3S/c1-2-7-12-10(14)13-17(15,16)9-5-3-8(11)4-6-9/h3-6H,2,7H2,1H3,(H2,12,13,14)",RKWGIWYCVPQPMF-UHFFFAOYSA-N,Clc1ccc(S(=O)(=O)NC(=O)NCCC)cc1,C10H11ClO3,276.74399,1.9460,6,217.00,0,135.77249,1,1-(4-chlorophenyl)sulfonyl-3-propyl-urea
"InChI=1S/C10H12ClNO2/c1-7(2)14-10(13)12-9-5-3-4-8(11)6-9/h3-7H,1-2H3,(H,12,13)",CWJSHJJYOPWUGX-UHFFFAOYSA-N,Clc1cc(NC(OC(C)C)=O)ccc1,C10H11N3O3S,213.664,2.9150,4,193.25,0,52.028347,1,isopropyl <I>N</I>-(3-chlorophenyl)carbamate
"InChI=1S/C18H18ClNS/c1-20(2)11-5-7-14-15-6-3-4-8-17(15)21-18-10-9-13(19)12-16(14)18/h3-4,6-10,12H,5,11H2,1-2H3",WSPOMRSOLSGNFJ-UHFFFAOYSA-N,Clc1cc\2c(Sc3c(cccc3)/C/2=C\CCN(C)C)cc1,C10H12O3,315.86798,5.0770,3,292.75,1,90.563477,0,"(3<I>E</I>)-3-(2-chlorothioxanthen-9-ylidene)-<I>N</I>,<I>N</I>-dimethyl-propan-1-amine"
"InChI=1S/C9H11Cl3NO3PS/c1-3-14-17(18,15-4-2)16-9-7(11)5-6(10)8(12)13-9/h5H,3-4H2,1-2H3",SBPBAQFWLVIOKP-UHFFFAOYSA-N,Clc1cc(Cl)c(Cl)nc1OP(=S)(OCC)OCC,C12H7Cl3O2,350.59,4.5180,6,243.25,0,96.331474,1,"diethoxy-thioxo-[(3,5,6-trichloro-2-pyridyl)oxy]-&lambda;<sup>5</sup>-phosphane"
"InChI=1S/C22H23ClN2O8/c1-21(32)7-6-8-15(25(2)3)17(28)13(20(24)31)19(30)22(8,33)18(29)11(7)16(27)12-10(26)5-4-9(23)14(12)21/h4-5,7-8,15,26-27,31-33H,6,24H2,1-3H3",WKZUQOQLOHMCQC-UHFFFAOYSA-N,Clc1c2c(C(O)=C3C(CC4C(O)(C(=O)C(=C(O)N)C(=O)C4N(C)C)C3=O)C2(O)C)c(O)cc1,C13H10N2O3S,478.88498,0.4210,1,366.25,1,288.55856,0,"(2<I>E</I>)-2-[amino(hydroxy)methylene]-7-chloro-4-(dimethylamino)-6,10,11,12<I>a</I>-tetrahydroxy-6-methyl-4,4<I>a</I>,5,5<I>a</I>-tetrahydrotetracene-1,3,12-trione"
"InChI=1S/C14H11ClN2O4S/c15-11-6-5-8(7-12(11)22(16,20)21)14(19)10-4-2-1-3-9(10)13(18)17-14/h1-7,19H,(H,17,18)(H2,16,20,21)",JIVPVXMEBJLZRO-UHFFFAOYSA-N,Clc1ccc(cc1S(=O)(=O)N)C1(O)NC(=O)c2c1cccc2,C13H18O2,338.771,1.9730,2,255.00,0,225.29512,1,2-chloro-5-(1-hydroxy-3-oxo-isoindolin-1-yl)benzenesulfonamide
"InChI=1S/C7H4ClNO2/c8-4-1-2-6-5(3-4)9-7(10)11-6/h1-3H,(H,9,10)",TZFWDZFKRBELIQ-UHFFFAOYSA-N,Clc1cc2NC(Oc2cc1)=O,C13H9Cl3N2O,169.567,1.7960,0,137.38,0,111.11332,1,"5-chloro-3<I>H</I>-1,3-benzoxazol-2-one"
"InChI=1S/C7H4ClNO3/c8-3-1-4-6(2-5(3)10)12-7(11)9-4/h1-2,10H,(H,9,11)",AGLXDWOTVQZHIQ-UHFFFAOYSA-N,Clc1cc2NC(Oc2cc1O)=O,C14H12O3,185.56599,1.5230,0,145.38,0,151.50026,0,"5-chloro-6-hydroxy-3<I>H</I>-1,3-benzoxazol-2-one"
"InChI=1S/C27H44O/c1-19(2)8-6-9-21(4)25-15-16-26-22(10-7-17-27(25,26)5)12-13-23-18-24(28)14-11-20(23)3/h12-13,19,21,24-26,28H,3,6-11,14-18H2,1-2,4-5H3",QYSXJUFSXHHAJI-UHFFFAOYSA-N,OC1CC(=CC=C2C3CCC(C(CCCC(C)C)C)C3(CCC2)C)C(CC1)=C,C15H12N2O,384.64798,7.1960,6,381.38,1,79.769028,1,"(3<I>E</I>)-3-[(2<I>E</I>)-2-[1-(1,5-dimethylhexyl)-7<I>a</I>-methyl-2,3,3<I>a</I>,5,6,7-hexahydro-1<I>H</I>-inden-4-ylidene]ethylidene]-4-methylene-cyclohexanol"
"InChI=1S/C24H44O5/c1-4-5-6-7-8-9-10-11-12-13-14-15-16-17-19-24(27-3)20-18-22(28-29-24)21-23(25)26-2/h18,20,22H,4-17,19,21H2,1-3H3",ZKFUKHCEACWDKL-UHFFFAOYSA-N,O1OC(C=CC1(OC)CCCCCCCCCCCCCCCC)CC(OC)=O,C4H4KNO4S,412.61099,8.3080,19,405.63,1,152.46765,0,"methyl 2-(6-hexadecyl-6-methoxy-3<I>H</I>-1,2-dioxin-3-yl)acetate"