InChI,Key,smiles,Formula,Weight,logP(o/w),b_rotN,vol,lip_violation,ASA_P,Natural,ChemicalName
"InChI=1S/C35H49N5O6/c1-5-22(4)29-35(46)40-20-14-13-19-28(40)33(44)36-26(17-10-8-9-15-23(41)6-2)32(43)38-30(34(45)37-29)25-21-39(7-3)27-18-12-11-16-24(27)31(25)42/h11-12,16,18,21-22,26,28-30H,5-10,13-1 5,17,19-20H2,1-4H3,(H,36,44)(H,37,45)(H,38,43)",QIRFIQOIPIMCJZ-UHFFFAOYSA-N,O=C1c2c(N(C=C1C1NC(=O)C(NC(=O)C3N(CCCC3)C(=O)C(NC1=O)C(CC)C)CCCCCC(=O)CC)CC)cccc2,C13H10N2O3S,635.80597,3.4010,11,539.75,2,141.94186,0,"6-(1-ethyl-4-oxo-3-quinolyl)-9-(6-oxooctyl)-3-sec-butyl-1,4,7,10-tetrazabicyclo[10.4.0]hexadecane-2,5,8,11-tetrone"
"InChI=1S/C32H45N5O7/c1-5-20(2)27-32(42)36-18-12-11-16-25(36)30(40)33-23(14-7-6-8-17-26(38)43-3)29(39)35-28(31(41)34-27)22-19-37(44-4)24-15-10-9-13-21(22)24/h9-10,13,15,19-20,23,25,27-28H,5-8,11-12,14, 16-18H2,1-4H3,(H,33,40)(H,34,41)(H,35,39)",ZRTTYQUEGJSZCR-UHFFFAOYSA-N,O=C1NC(C(CC)C)C(=O)N2C(CCCC2)C(=O)NC(CCCCCC(OC)=O)C(=O)NC1c1c2c(n(OC)c1)cccc2,C13H18O2,611.73999,3.3260,11,509.75,2,218.19577,1,"methyl 6-[6-(1-methoxyindol-3-yl)-2,5,8,11-tetraoxo-3-sec-butyl-1,4,7,10-tetrazabicyclo[10.4.0]hexadecan-9-yl]hexanoate"
"InChI=1S/C31H43N5O7/c1-4-19(2)26-31(42)35-17-11-10-15-24(35)29(40)32-22(13-6-5-7-16-25(37)38)28(39)34-27(30(41)33-26)21-18-36(43-3)23-14-9-8-12-20(21)23/h8-9,12,14,18-19,22,24,26-27H,4-7,10-11,13,15-1 7H2,1-3H3,(H,32,40)(H,33,41)(H,34,39)(H,37,38)",PCBHSMLOGXYXEK-UHFFFAOYSA-N,O=C1NC(C(CC)C)C(=O)N2C(CCCC2)C(=O)NC(CCCCCC(O)=O)C(=O)NC1c1c2c(n(OC)c1)cccc2,C13H9Cl3N2O,597.71301,3.0620,10,481.50,2,248.54358,0,"6-[6-(1-methoxyindol-3-yl)-2,5,8,11-tetraoxo-3-sec-butyl-1,4,7,10-tetrazabicyclo[10.4.0]hexadecan-9-yl]hexanoic acid"
"InChI=1S/C33H46FN5O6/c1-5-20(2)28-33(44)38-18-12-11-16-26(38)31(42)35-24(14-7-6-8-17-27(40)21(3)34)30(41)37-29(32(43)36-28)23-19-39(45-4)25-15-10-9-13-22(23)25/h9-10,13,15,19-21,24,26,28-29H,5-8,11-12 ,14,16-18H2,1-4H3,(H,35,42)(H,36,43)(H,37,41)",CGRXYPIKNAIYSK-UHFFFAOYSA-N,FC(C(=O)CCCCCC1NC(=O)C2N(CCCC2)C(=O)C(NC(=O)C(NC1=O)c1c2c(n(OC)c1)cccc2)C(CC)C)C,C14H12O3,627.758,3.6890,11,517.75,2,209.53558,1,"9-(7-fluoro-6-oxo-octyl)-6-(1-methoxyindol-3-yl)-3-sec-butyl-1,4,7,10-tetrazabicyclo[10.4.0]hexadecane-2,5,8,11-tetrone"
"InChI=1S/C31H44N6O7/c1-4-19(2)26-31(42)36-17-11-10-15-24(36)29(40)32-22(13-6-5-7-16-25(38)35-43)28(39)34-27(30(41)33-26)21-18-37(44-3)23-14-9-8-12-20(21)23/h8-9,12,14,18-19,22,24,26-27,43H,4-7,10-11,1 3,15-17H2,1-3H3,(H,32,40)(H,33,41)(H,34,39)(H,35,38)",DPEJEUNJKNPEIT-UHFFFAOYSA-N,O=C1NC(C(CC)C)C(=O)N2C(CCCC2)C(=O)NC(CCCCCC(=O)NO)C(=O)NC1c1c2c(n(OC)c1)cccc2,C15H12N2O,612.72797,2.3830,11,500.00,2,264.7186,1,"6-[6-(1-methoxyindol-3-yl)-2,5,8,11-tetraoxo-3-sec-butyl-1,4,7,10-tetrazabicyclo[10.4.0]hexadecan-9-yl]hexanehydroxamic acid"
"InChI=1S/C32H45N5O6S/c1-5-20(2)27-32(42)36-17-11-10-16-26(36)30(40)33-24(14-7-6-12-18-44-21(3)38)29(39)35-28(31(41)34-27)23-19-37(43-4)25-15-9-8-13-22(23)25/h8-9,13,15,19-20,24,26-28H,5-7,10-12,14,16- 18H2,1-4H3,(H,33,40)(H,34,41)(H,35,39)",BZNFSGGAPQPZIM-UHFFFAOYSA-N,S(C(=O)C)CCCCCC1NC(=O)C2N(CCCC2)C(=O)C(NC(=O)C(NC1=O)c1c2c(n(OC)c1)cccc2)C(CC)C,C4H4KNO4S,627.80701,4.0000,11,500.63,2,239.98409,0,"<I>S</I>-[5-[6-(1-methoxyindol-3-yl)-2,5,8,11-tetraoxo-3-sec-butyl-1,4,7,10-tetrazabicyclo[10.4.0]hexadecan-9-yl]pentyl] ethanethioate"
"InChI=1S/C37H54N6O5/c1-4-25(3)32-37(48)43-22-12-11-19-31(43)35(46)38-29(17-8-6-7-15-26(44)5-2)34(45)40-33(36(47)39-32)28-23-42(24-41-20-13-14-21-41)30-18-10-9-16-27(28)30/h9-10,16,18,23,25,29,31-33H,4 -8,11-15,17,19-22,24H2,1-3H3,(H,38,46)(H,39,47)(H,40,45",UQAXANHAAWGWOS-UHFFFAOYSA-N,O=C1NC(C(CC)C)C(=O)N2C(CCCC2)C(=O)NC(CCCCCC(=O)CC)C(=O)NC1c1c2c(n(c1)CN1CCCC1)cccc2,C7H6O3,662.87598,4.9310,12,554.38,2,182.40984,1,"9-(6-oxooctyl)-6-[1-(pyrrolidin-1-ylmethyl)indol-3-yl]-3-sec-butyl-1,4,7,10-tetrazabicyclo[10.4.0]hexadecane-2,5,8,11-tetrone"
"InChI=1S/C40H53N5O7/c1-6-24(3)34-40(50)45-20-14-13-19-32(45)38(48)42-31(18-10-8-9-15-26(46)7-2)37(47)44-36(39(49)43-34)33-29-16-11-12-17-30(29)41-35(33)25-21-27(51-4)23-28(22-25)52-5/h11-12,16-17,21-2 4,31-32,34,36,41H,6-10,13-15,18-20H2,1-5H3,(H,42,48)(H,",GLKMUVUQTDBVFY-UHFFFAOYSA-N,O(C)c1cc(cc(OC)c1)-c1[nH]c2c(cccc2)c1C1NC(=O)C(NC(=O)C2N(CCCC2)C(=O)C(NC1=O)C(CC)C)CCCCCC(=O)CC,C7H8N4O2,715.89197,5.8000,13,608.13,3,229.34505,0,"6-[2-(3,5-dimethoxyphenyl)-1<I>H</I>-indol-3-yl]-9-(6-oxooctyl)-3-sec-butyl-1,4,7,10-tetrazabicyclo[10.4.0]hexadecane-2,5,8,11-tetrone"
"InChI=1S/C33H44ClN5O5/c1-4-20(3)28-33(44)39-18-12-11-17-26(39)31(42)36-25(16-8-6-7-13-21(40)5-2)30(41)38-29(32(43)37-28)23-19-35-24-15-10-9-14-22(24)27(23)34/h9-10,14-15,19-20,25-26,28-29H,4-8,11-13,1 6-18H2,1-3H3,(H,36,42)(H,37,43)(H,38,41)",JMMPUTVKLCAIID-UHFFFAOYSA-N,Clc1c2c(ncc1C1NC(=O)C(NC(=O)C3N(CCCC3)C(=O)C(NC1=O)C(CC)C)CCCCCC(=O)CC)cccc2,C8H10N4O2,626.198,4.4450,10,515.00,1,136.3904,1,"6-(4-chloro-3-quinolyl)-9-(6-oxooctyl)-3-sec-butyl-1,4,7,10-tetrazabicyclo[10.4.0]hexadecane-2,5,8,11-tetrone"
"InChI=1S/C38H54N6O5/c1-4-25(3)32-38(49)44-23-15-12-20-31(44)36(47)40-30(19-9-6-8-16-26(45)5-2)35(46)42-33(37(48)41-32)28-24-39-29-18-11-10-17-27(29)34(28)43-21-13-7-14-22-43/h10-11,17-18,24-25,30-33H, 4-9,12-16,19-23H2,1-3H3,(H,40,47)(H,41,48)(H,42,46)",JPJYOPNEGMWFJL-UHFFFAOYSA-N,O=C1NC(C(CC)C)C(=O)N2C(CCCC2)C(=O)NC(CCCCCC(=O)CC)C(=O)NC1c1cnc2c(cccc2)c1N1CCCCC1,C8H14ClN5,674.88696,4.7420,11,558.63,2,133.55148,1,"9-(6-oxooctyl)-6-[4-(1-piperidyl)-3-quinolyl]-3-sec-butyl-1,4,7,10-tetrazabicyclo[10.4.0]hexadecane-2,5,8,11-tetrone"
"InChI=1S/C32H41N5O6/c38-28(36-43)18-9-3-8-16-24-29(39)34-25(20-22-12-4-1-5-13-22)30(40)35-26(21-23-14-6-2-7-15-23)32(42)37-19-11-10-17-27(37)31(41)33-24/h1-2,4-7,12-15,24-27,43H,3,8-11,16-21H2,(H,33,4 1)(H,34,39)(H,35,40)(H,36,38)",IYKZUFQXXOHVLB-UHFFFAOYSA-N,O=C1NC(Cc2ccccc2)C(=O)N2C(CCCC2)C(=O)NC(CCCCCC(=O)NO)C(=O)NC1Cc1ccccc1,C8H8O3,591.70898,2.5350,11,488.13,2,226.23868,0,"6-(3,6-dibenzyl-2,5,8,11-tetraoxo-1,4,7,10-tetrazabicyclo[10.4.0]hexadecan-9-yl)hexanehydroxamic acid"
"InChI=1S/C30H45N5O7/c1-4-19(2)26-30(40)35-17-9-8-11-24(35)29(39)31-22(10-6-5-7-12-25(36)34-41)27(37)32-23(28(38)33-26)18-20-13-15-21(42-3)16-14-20/h13-16,19,22-24,26,41H,4-12,17-18H2,1-3H3,(H,31,39)(H ,32,37)(H,33,38)(H,34,36)",SPGYZAPRYGWWSZ-UHFFFAOYSA-N,O(C)c1ccc(cc1)CC1NC(=O)C(NC(=O)C2N(CCCC2)C(=O)C(NC1=O)C(CC)C)CCCCCC(=O)NO,C8H9NO2,587.71802,2.3700,12,474.13,2,272.52563,1,"6-[6-[(4-methoxyphenyl)methyl]-2,5,8,11-tetraoxo-3-sec-butyl-1,4,7,10-tetrazabicyclo[10.4.0]hexadecan-9-yl]hexanehydroxamic acid"
"InChI=1S/C31H39N5O6/c37-27(35-42)17-9-3-8-15-23-28(38)33-24(19-21-11-4-1-5-12-21)29(39)34-25(20-22-13-6-2-7-14-22)31(41)36-18-10-16-26(36)30(40)32-23/h1-2,4-7,11-14,23-26,42H,3,8-10,15-20H2,(H,32,40)( H,33,38)(H,34,39)(H,35,37)",FQWUNUXAOHTLLG-UHFFFAOYSA-N,O=C1NC(Cc2ccccc2)C(=O)N2C(CCC2)C(=O)NC(CCCCCC(=O)NO)C(=O)NC1Cc1ccccc1,C9H10O3,577.68201,2.0930,11,502.25,2,222.46786,0,"6-(3,6-dibenzyl-2,5,8,11-tetraoxo-1,4,7,10-tetrazabicyclo[10.3.0]pentadecan-9-yl)hexanehydroxamic acid"
"InChI=1S/C26H37N5O6/c1-26(2)25(36)28-19(16-17-10-5-3-6-11-17)24(35)31-15-9-13-20(31)23(34)27-18(22(33)29-26)12-7-4-8-14-21(32)30-37/h3,5-6,10-11,18-20,37H,4,7-9,12-16H2,1-2H3,(H,27,34)(H,28,36)(H,29,3 3)(H,30,32)",XWZYWFHHLWISBR-UHFFFAOYSA-N,O=C1NC(Cc2ccccc2)C(=O)N2C(CCC2)C(=O)NC(CCCCCC(=O)NO)C(=O)NC1(C)C,C9H8O2,515.61096,0.9650,9,427.63,2,227.94196,1,"6-(3-benzyl-6,6-dimethyl-2,5,8,11-tetraoxo-1,4,7,10-tetrazabicyclo[10.3.0]pentadecan-9-yl)hexanehydroxamic acid"
"InChI=1S/C23H34O5/c1-4-14(2)23(26)28-20-7-5-6-16-9-8-15(3)19(22(16)20)11-10-18-12-17(24)13-21(25)27-18/h6,8-9,14-15,17-20,22,24H,4-5,7,10-13H2,1-3H3",AJLFOPYRIVGYMJ-UHFFFAOYSA-N,O1C(CC(O)CC1=O)CCC1C2C(C=CC1C)=CCCC2OC(=O)C(CC)C,C10H11ClO3,390.51999,3.6940,7,356.63,0,164.09668,1,"[8-[2-(4-hydroxy-6-oxo-tetrahydropyran-2-yl)ethyl]-7-methyl-1,2,3,7,8,8<I>a</I>-hexahydronaphthalen-1-yl] 2-methylbutanoate"
"InChI=1S/C32H45N3O3/c1-33-14-11-23-7-9-30(36-4)26(17-23)21-28-19-25(13-16-35-3)20-29(32(28)38-6)22-27-18-24(12-15-34-2)8-10-31(27)37-5/h7-10,17-20,33-35H,11-16,21-22H2,1-6H3",DXEVTBAWIGXNAW-UHFFFAOYSA-N,O(C)c1c(cc(cc1Cc1cc(ccc1OC)CCNC)CCNC)Cc1cc(ccc1OC)CCNC,C10H11N3O3S,519.72998,5.6170,16,515.00,1,239.02467,0,2-[4-methoxy-3-[[2-methoxy-3-[[2-methoxy-5-[2-(methylamino)ethyl]phenyl]methyl]-5-[2-(methylamino)ethyl]phenyl]methyl]phenyl]-<I>N</I>-methyl-ethanamine
"InChI=1S/C16H19ClN6O/c1-10(2)23-9-19-13-14(20-12-5-3-4-11(17)8-12)21-16(18-6-7-24)22-15(13)23/h3-5,8-10,24H,6-7H2,1-2H3,(H2,18,20,21,22)",XZEFMZCNXDQXOZ-UHFFFAOYSA-N,Clc1cc(Nc2nc(nc3n(cnc23)C(C)C)NCCO)ccc1,C10H12O3,346.82199,2.4421,6,313.13,0,140.43039,1,2-[[6-(3-chloroanilino)-9-isopropyl-purin-2-yl]amino]ethanol
"InChI=1S/C18H18BrN3O2/c1-3-23-16-9-14-15(10-17(16)24-4-2)20-11-21-18(14)22-13-7-5-6-12(19)8-13/h5-11H,3-4H2,1-2H3,(H,20,21,22)",YXOXHAUUTIOBDA-UHFFFAOYSA-N,Brc1cc(Nc2ncnc3c2cc(OCC)c(OCC)c3)ccc1,C12H7Cl3O2,388.26498,4.0017,6,328.00,0,86.91507,0,"<I>N</I>-(3-bromophenyl)-6,7-diethoxy-quinazolin-4-amine"
"InChI=1S/C46H73NO14/c1-13-16-34-28(7)37(58-38-22-33(48)43(31(10)57-38)60-45(47)53)23-46(54,61-34)30(9)41(51)29(8)42-35(55-11)18-15-17-24(3)19-26(5)39(49)32(14-2)40(50)27(6)20-25(4)21-36(56-12)44(52)59 -42/h13,15-18,20-21,26-34,37-41,43,48-51,54H,14,19,22-2",BMVYERDNLNLZPE-UHFFFAOYSA-N,O1C(=O)C(OC)=CC(=CC(C)C(O)C(CC)C(O)C(CC(=CC=CC(OC)=C1C(C(O)C(C)C1(OC(C=CC)C(C)C(OC2OC(C)C(OC(=O)N)C(O)C2)C1)O)C)C)C)C,C13H10N2O3S,864.08301,6.5730,12,733.13,4,322.81155,1,"[6-[2-[3-[(2<I>E</I>,4<I>E</I>,6<I>E</I>,14<I>Z</I>,16<I>Z</I>)-11-ethyl-10,12-dihydroxy-3,17-dimethoxy-7,9,13,15-tetramethyl-18-oxo-1-oxacyclooctadeca-2,4,6,14,16-pentaen-2-yl]-2-hydroxy-1-methyl-but yl]-2-hydroxy-5-methyl-6-[(<I>E</I>)-prop-1-enyl]tetrahydropyran-4-yl]oxy-4-hydroxy-2-methyl-tetrahydropyran-3-yl] carbamate"
InChI=1S/C6H10O5/c7-1-2(8)4(10)6-5(11-6)3(1)9/h1-10H,ZHMWOVGZCINIHW-UHFFFAOYSA-N,O1C2C1C(O)C(O)C(O)C2O,C13H18O2,162.14099,-2.5460,0,113.13,0,167.63609,1,"7-oxabicyclo[4.1.0]heptane-2,3,4,5-tetrol"
"InChI=1S/C29H42O10/c1-15-22(32)23(33)24(34)25(38-15)39-17-3-8-27(14-30)19-4-7-26(2)18(16-11-21(31)37-13-16)6-10-29(26,36)20(19)5-9-28(27,35)12-17/h11,14-15,17-20,22-25,32-36H,3-10,12-13H2,1-2H3",HULMNSIAKWANQO-UHFFFAOYSA-N,O1C(C)C(O)C(O)C(O)C1OC1CC2(O)CCC3C(CCC4(C)C(CCC34O)C3=CC(OC3)=O)C2(CC1)C=O,C14H12O3,550.64496,1.1190,4,425.13,1,300.64877,1,"5,14-dihydroxy-13-methyl-17-(5-oxo-2<I>H</I>-furan-3-yl)-3-(3,4,5-trihydroxy-6-methyl-tetrahydropyran-2-yl)oxy-2,3,4,6,7,8,9,11,12,15,16,17-dodecahydro-1<I>H</I>-cyclopenta[a]phenanthrene-10-carbaldeh yde"
"InChI=1S/C23H30O6/c1-13(24)29-12-19(27)23(28)9-7-17-16-5-4-14-10-15(25)6-8-21(14,2)20(16)18(26)11-22(17,23)3/h10,16-17,20,28H,4-9,11-12H2,1-3H3",ITRJWOMZKQRYTA-UHFFFAOYSA-N,OC1(CCC2C3C(C4(C(=CC(=O)CC4)CC3)C)C(=O)CC12C)C(=O)COC(=O)C,C15H12N2O,402.487,1.0350,4,327.63,0,161.83875,0,"[2-(17-hydroxy-10,13-dimethyl-3,11-dioxo-1,2,6,7,8,9,12,14,15,16-decahydrocyclopenta[a]phenanthren-17-yl)-2-oxo-ethyl] acetate"
"InChI=1S/C34H48O8/c1-8-10-11-12-13-14-15-16-30(38)41-26-20-27-31(39-24(5)35)42-32(40-25(6)36)34(27)28(21-26)33(7,18-17-22(3)9-2)23(4)19-29(34)37/h9,13-16,20,23,26,28-29,31-32,37H,2-3,8,10-12,17-19,21H 2,1,4-7H3",ZTSAUZOTPDUDQM-UHFFFAOYSA-N,O1C(OC(=O)C)C23C(CC(OC(=O)C=CC=CCCCCC)C=C2C1OC(=O)C)C(CCC(C=C)=C)(C)C(CC3O)C,C4H4KNO4S,584.75,6.6490,16,526.38,2,193.33797,1,"[1,3-diacetoxy-10-hydroxy-7,8-dimethyl-7-(3-methylenepent-4-enyl)-1,3,5,6,6<I>a</I>,8,9,10-octahydrobenzo[d]isobenzofuran-5-yl] (2<I>E</I>,4<I>E</I>)-deca-2,4-dienoate"
"InChI=1S/C34H52O8/c1-8-10-11-12-13-14-15-16-30(38)41-29-19-23(4)33(7,18-17-22(3)9-2)28-21-26(37)20-27-31(39-24(5)35)42-32(34(27,28)29)40-25(6)36/h9,20,23,26,28-29,31-32,37H,2-3,8,10-19,21H2,1,4-7H3",DLGWDWAHHHQPPW-UHFFFAOYSA-N,O1C(OC(=O)C)C23C(CC(O)C=C2C1OC(=O)C)C(CCC(C=C)=C)(C)C(CC3OC(=O)CCCCCCCCC)C,C7H6O3,588.78198,7.1290,18,513.25,2,178.25095,1,"[1,3-diacetoxy-5-hydroxy-7,8-dimethyl-7-(3-methylenepent-4-enyl)-1,3,5,6,6<I>a</I>,8,9,10-octahydrobenzo[d]isobenzofuran-10-yl] decanoate"
"InChI=1S/C21H26N2O3/c1-26-21(25)19-15-10-17-20-14(13-4-2-3-5-16(13)22-20)8-9-23(17)11-12(15)6-7-18(19)24/h2-5,12,15,17-19,22,24H,6-11H2,1H3",BLGXFZZNTVWLAY-UHFFFAOYSA-N,OC1CCC2C(CC3N(C2)CCc2c3[nH]c3c2cccc3)C1C(OC)=O,C7H8N4O2,354.44998,2.4820,2,325.50,0,119.86348,0,"methyl 18-hydroxy-1,3,11,12,14,15,16,17,18,19,20,21-dodecahydroyohimban-19-carboxylate"
"InChI=1S/C20H14BrN3O2/c21-13-5-6-14-12(10-23-18(14)9-13)7-8-22-20(26)19(25)16-11-24-17-4-2-1-3-15(16)17/h1-11,23-24H,(H,22,26)",CNFDLPADVYGTJH-UHFFFAOYSA-N,Brc1cc2[nH]cc(c2cc1)C=CNC(=O)C(=O)c1c2c([nH]c1)cccc2,C8H10N4O2,408.255,4.0090,5,344.50,0,188.07262,1,<I>N</I>-[(<I>E</I>)-2-(6-bromo-1<I>H</I>-indol-3-yl)vinyl]-2-(1H-indol-3-yl)-2-oxo-acetamide
"InChI=1S/C20H15N3O2/c24-19(16-12-23-18-8-4-2-6-15(16)18)20(25)21-10-9-13-11-22-17-7-3-1-5-14(13)17/h1-12,22-23H,(H,21,25)",GHIXWSKNNGMWRO-UHFFFAOYSA-N,O=C(C(=O)NC=Cc1c2c([nH]c1)cccc2)c1c2c([nH]c1)cccc2,C8H14ClN5,329.35898,3.1740,5,319.75,0,163.9959,0,2-(1H-indol-3-yl)-<I>N</I>-[(<I>E</I>)-2-(1H-indol-3-yl)vinyl]-2-oxo-acetamide
"InChI=1S/C20H14BrN3O3/c21-12-4-5-16-14(8-12)11(9-23-16)6-7-22-20(27)19(26)15-10-24-18-13(15)2-1-3-17(18)25/h1-10,23-25H,(H,22,27)",YOSCZIHXUFLPKH-UHFFFAOYSA-N,Brc1cc2c([nH]cc2C=CNC(=O)C(=O)c2c3c([nH]c2)c(O)ccc3)cc1,C8H8O3,424.254,3.6990,5,348.88,0,191.24492,1,<I>N</I>-[(<I>E</I>)-2-(5-bromo-1<I>H</I>-indol-3-yl)vinyl]-2-(7-hydroxy-1<I>H</I>-indol-3-yl)-2-oxo-acetamide
"InChI=1S/C57H65N5O17/c1-25-12-16-33(59-25)51(67)77-46-42(64)39(23-56(6,7)48(46)71-10)73-37-18-14-31-21-36(54(70)76-44(31)28(37)4)62-50(66)41-27(3)32(24-58-41)22-40(63)61-35-20-30-15-19-38(29(5)45(30)7 5-53(35)69)74-55-43(65)47(49(72-11)57(8,9)79-55)78-52(6",GNVSIUDBMQPSRC-UHFFFAOYSA-N,O1C(C)(C)C(OC)C(OC(=O)c2[nH]c(cc2)C)C(O)C1Oc1ccc2C=C(NC(=O)Cc3c[nH]c(C(=O)NC4Cc5c(OC4=O)c(C)c(OC4CC(C)(C)C(OC)C(OC(=O)c6[nH]c(cc6)C)C4O)cc5)c3C)C(Oc2c1C)=O,C8H9NO2,1092.1649,5.3825,19,943.25,3,406.93646,1,"[6-hydroxy-5-[3-[[4-[2-[[7-[3-hydroxy-5-methoxy-6,6-dimethyl-4-(5-methyl-1<I>H</I>-pyrrole-2-carbonyl)oxy-tetrahydropyran-2-yl]oxy-8-methyl-2-oxo-chromen-3-yl]amino]-2-oxo-ethyl]-3-methyl-1<I>H</I>-py rrole-2-carbonyl]amino]-8-methyl-2-oxo-chroman-7-yl]oxy-2-methoxy-3,3-dimethyl-cyclohexyl] 5-methyl-1<I>H</I>-pyrrole-2-carboxylate"
"InChI=1S/C14H16ClO5PS/c1-4-17-21(22,18-5-2)20-10-6-7-11-9(3)13(15)14(16)19-12(11)8-10/h6-8H,4-5H2,1-3H3",BXNANOICGRISHX-UHFFFAOYSA-N,ClC=1C(Oc2c(ccc(OP(=S)(OCC)OCC)c2)C=1C)=O,C9H10O3,362.76999,4.2170,6,286.13,0,147.22794,1,3-chloro-7-diethoxyphosphinothioyloxy-4-methyl-chromen-2-one
"InChI=1S/C30H31ClN2O7/c1-30(2,3)16-33-23-12-11-18(31)13-21(23)27(20-10-6-8-17-7-4-5-9-19(17)20)40-24(28(33)37)15-25(34)32-22(29(38)39)14-26(35)36/h4-13,22,24,27H,14-16H2,1-3H3,(H,32,34)(H,35,36)(H,38, 39)",GXDQAFKUUPODFF-UHFFFAOYSA-N,Clc1cc2c(N(CC(C)(C)C)C(=O)C(OC2c2c3c(ccc2)cccc3)CC(=O)NC(CC(O)=O)C(O)=O)cc1,C9H8O2,567.03796,5.0290,10,476.25,1,220.79286,0,"2-[[2-[7-chloro-1-(2,2-dimethylpropyl)-5-(1-naphthyl)-2-oxo-5<I>H</I>-4,1-benzoxazepin-3-yl]acetyl]amino]butanedioic acid"
"InChI=1S/C22H20ClN3O4/c23-16-6-7-17-14(9-16)10-18(24-17)20(27)25-19(8-13-4-2-1-3-5-13)21(28)26-11-15(12-26)22(29)30/h1-7,9-10,15,19,24H,8,11-12H2,(H,25,27)(H,29,30)",RONLONYAIBUEKT-UHFFFAOYSA-N,Clc1cc2cc([nH]c2cc1)C(=O)NC(Cc1ccccc1)C(=O)N1CC(C1)C(O)=O,C10H11ClO3,425.87198,2.4550,8,373.38,0,198.90819,1,1-[2-[(5-chloro-1<I>H</I>-indole-2-carbonyl)amino]-3-phenyl-propanoyl]azetidine-3-carboxylic acid
"InChI=1S/C23H23ClFN3O3/c24-16-3-6-19-15(12-16)13-20(26-19)22(30)27-21(11-14-1-4-17(25)5-2-14)23(31)28-9-7-18(29)8-10-28/h1-6,12-13,18,21,26,29H,7-11H2,(H,27,30)",YDCGVASFVACWKF-UHFFFAOYSA-N,Clc1cc2cc([nH]c2cc1)C(=O)NC(Cc1ccc(F)cc1)C(=O)N1CCC(O)CC1,C10H11N3O3S,443.90598,3.4690,7,386.13,0,131.75061,1,5-chloro-<I>N</I>-[1-[(4-fluorophenyl)methyl]-2-(4-hydroxy-1-piperidyl)-2-oxo-ethyl]-1<I>H</I>-indole-2-carboxamide
"InChI=1S/C11H19F2NO3/c12-11(13,10(16)17)9(15)8(14)6-7-4-2-1-3-5-7/h7-9,15H,1-6,14H2,(H,16,17)",VHRXHECRJSYLDR-UHFFFAOYSA-N,FC(F)(C(O)C(N)CC1CCCCC1)C(O)=O,C10H12O3,251.27299,2.0319,5,199.00,0,212.2625,0,"4-amino-5-cyclohexyl-2,2-difluoro-3-hydroxy-pentanoic acid"
"InChI=1S/C13H12O3S/c1-8-11(15)9-4-2-3-5-10(9)12(16)13(8)17-7-6-14/h2-5,14H,6-7H2,1H3",MZIOEPIEDDJOPP-UHFFFAOYSA-N,S(CCO)C1=C(C)C(=O)c2c(cccc2)C1=O,C12H7Cl3O2,248.302,1.7360,3,217.63,0,154.60982,1,"2-(2-hydroxyethylsulfanyl)-3-methyl-naphthalene-1,4-dione"
"InChI=1S/C15H18N2O2/c1-19-12-4-5-14-13(8-12)11(9-17-14)6-7-16-15(18)10-2-3-10/h4-5,8-10,17H,2-3,6-7H2,1H3,(H,16,18)",HSOHROOUHRUSJR-UHFFFAOYSA-N,O(C)c1cc2c([nH]cc2CCNC(=O)C2CC2)cc1,C13H10N2O3S,258.32098,1.9640,6,251.88,0,188.03087,0,<I>N</I>-[2-(5-methoxy-1<I>H</I>-indol-3-yl)ethyl]cyclopropanecarboxamide
"InChI=1S/C11H14NO5P/c12-11(10(13)14,7-1-2-7)8-3-5-9(6-4-8)18(15,16)17/h3-7H,1-2,12H2,(H,13,14)(H2,15,16,17)",IGODGTDUQSMDQU-UHFFFAOYSA-N,P(O)(O)(=O)c1ccc(cc1)C(N)(C(O)=O)C1CC1,C13H18O2,271.20898,-2.4107,4,202.50,0,276.61465,1,2-amino-2-cyclopropyl-2-(4-phosphonophenyl)acetic acid
"InChI=1S/C18H15ClN2O/c1-14(21-10-9-20-13-21)17-7-2-3-8-18(17)22-12-15-5-4-6-16(19)11-15/h2-11,13H,1,12H2",WHPAGCJNPTUGGD-UHFFFAOYSA-N,Clc1cc(ccc1)COc1ccccc1C(n1ccnc1)=C,C13H9Cl3N2O,310.784,4.9700,5,302.25,0,65.768234,1,1-[1-[2-[(3-chlorophenyl)methoxy]phenyl]vinyl]imidazole
"InChI=1S/C23H16O11/c24-11(9-31-14-3-1-5-16-20(14)12(25)7-18(33-16)22(27)28)10-32-15-4-2-6-17-21(15)13(26)8-19(34-17)23(29)30/h1-8,11,24H,9-10H2,(H,27,28)(H,29,30)/p-2",IMZMKUWMOSJXDT-UHFFFAOYSA-L,O1c2c(C(=O)C=C1C(=O)[O-])c(OCC(O)COc1c3c(OC(=CC3=O)C(=O)[O-])ccc1)ccc2,C14H12O3,466.35397,1.4930,8,395.75,1,284.36703,0,5-[3-(2-carboxylato-4-oxo-chromen-5-yl)oxy-2-hydroxy-propoxy]-4-oxo-chromene-2-carboxylate
"InChI=1S/C23H16O11/c24-11(9-31-14-3-1-5-16-20(14)12(25)7-18(33-16)22(27)28)10-32-15-4-2-6-17-21(15)13(26)8-19(34-17)23(29)30/h1-8,11,24H,9-10H2,(H,27,28)(H,29,30)",IMZMKUWMOSJXDT-UHFFFAOYSA-N,O1c2c(C(=O)C=C1C(O)=O)c(OCC(O)COc1c3c(OC(=CC3=O)C(O)=O)ccc1)ccc2,C15H12N2O,468.37,1.2510,8,395.75,1,315.72482,1,5-[3-(2-carboxy-4-oxo-chromen-5-yl)oxy-2-hydroxy-propoxy]-4-oxo-chromene-2-carboxylic acid
"InChI=1S/C13H17NO/c1-4-8-13(15)14(5-2)12-10-7-6-9-11(12)3/h4,6-10H,5H2,1-3H3",DNTGGZPQPQTDQF-UHFFFAOYSA-N,O=C(N(CC)c1ccccc1C)\C=C\C,C4H4KNO4S,203.28499,2.6750,4,212.38,0,42.868324,0,(<I>E</I>)-<I>N</I>-ethyl-<I>N</I>-(o-tolyl)but-2-enamide
"InChI=1S/C50H67N11O11S2/c1-26(62)39(42(53)65)59-49(72)41-50(3,4)74-73-25-38(58-43(66)33(52)21-28-11-6-5-7-12-28)47(70)56-36(22-29-16-18-31(64)19-17-29)45(68)57-37(23-30-24-54-34-14-9-8-13-32(30)34)46( 69)55-35(15-10-20-51)44(67)60-40(27(2)63)48(71)61-41/h5",PZWWYAHWHHNCHO-UHFFFAOYSA-N,S1SCC(NC(=O)C(N)Cc2ccccc2)C(=O)NC(Cc2ccc(O)cc2)C(=O)NC(Cc2c3c([nH]c2)cccc3)C(=O)NC(CCCN)C(=O)NC(C(O)C)C(=O)NC(C(=O)NC(C(O)C)C(=O)N)C1(C)C,C7H6O3,1062.2839,0.3940,18,816.50,3,469.78009,1,"19-[(2-amino-3-phenyl-propanoyl)amino]-10-(3-aminopropyl)-<I>N</I>-(1-carbamoyl-2-hydroxy-propyl)-7-(1-hydroxyethyl)-16-[(4-hydroxyphenyl)methyl]-13-(1H-indol-3-ylmethyl)-3,3-dimethyl-6,9,12,15,18-pen taoxo-1,2-dithia-5,8,11,14,17-pentazacycloicosane-4-carboxamide"
"InChI=1S/C32H46O8/c1-17(33)40-27(2,3)13-12-23(36)32(9,39)25-21(35)15-29(6)22-11-10-18-19(14-20(34)26(38)28(18,4)5)31(22,8)24(37)16-30(25,29)7/h10,12-13,19-22,25,34-35,39H,11,14-16H2,1-9H3",IXQKXEUSCPEQRD-UHFFFAOYSA-N,OC1CC2(C3CC=C4C(CC(O)C(=O)C4(C)C)C3(C)C(=O)CC2(C)C1C(O)(C(=O)C=CC(OC(=O)C)(C)C)C)C,C7H8N4O2,558.71198,2.9210,6,438.88,1,186.88905,1,"[(<I>E</I>)-5-(2,16-dihydroxy-4,4,9,13,14-pentamethyl-3,11-dioxo-2,7,8,10,12,15,16,17-octahydro-1<I>H</I>-cyclopenta[a]phenanthren-17-yl)-5-hydroxy-1,1-dimethyl-4-oxo-hex-2-enyl] acetate"
"InChI=1S/C30H44O7/c1-25(2,36)12-11-21(33)30(8,37)23-19(32)14-27(5)20-10-9-16-17(13-18(31)24(35)26(16,3)4)29(20,7)22(34)15-28(23,27)6/h9,11-12,17-20,23,31-32,36-37H,10,13-15H2,1-8H3",SRPHMISUTWFFKJ-UHFFFAOYSA-N,OC1CC2(C3CC=C4C(CC(O)C(=O)C4(C)C)C3(C)C(=O)CC2(C)C1C(O)(C(=O)C=CC(O)(C)C)C)C,C8H10N4O2,516.67499,2.3320,4,404.25,1,222.51154,0,"17-[(<I>E</I>)-1,5-dihydroxy-1,5-dimethyl-2-oxo-hex-3-enyl]-2,16-dihydroxy-4,4,9,13,14-pentamethyl-2,7,8,10,12,15,16,17-octahydro-1<I>H</I>-cyclopenta[a]phenanthrene-3,11-dione"