InChI,Key,smiles,Formula,Weight,logP(o/w),b_rotN,vol,lip_violation,ASA_P,Natural,ChemicalName
"InChI=1S/C39H68N7O17P3S/c1-4-5-6-7-8-9-10-11-12-13-14-15-16-17-18-19-30(48)67-23-22-41-29(47)20-21-42-37(51)34(50)39(2,3)25-60-66(57,58)63-65(55,56)59-24-28-33(62-64(52,53)54)32(49)38(61-28)46-27-45-3 1-35(40)43-26-44-36(31)46/h11-12,26-28,32-34,38,49-50H,",XDUHQPOXLUAVEE-UHFFFAOYSA-N,S(C(=O)CCCCCCCC=CCCCCCCCC)CCNC(=O)CCNC(=O)C(O)C(COP(OP(OCC1OC(n2c3ncnc(N)c3nc2)C(O)C1OP(O)(O)=O)(O)=O)(O)=O)(C)C,C8H8O3,1031.993,1.1241,37,810.38,3,641.12921,1,"<I>S</I>-[2-[3-[[4-[[[5-(6-aminopurin-9-yl)-4-hydroxy-3-phosphonooxy-tetrahydrofuran-2-yl]methoxy-hydroxy-phosphoryl]oxy-hydroxy-phosphoryl]oxy-2-hydroxy-3,3-dimethyl-butanoyl]amino]propanoylamino]eth yl] (<I>E</I>)-octadec-9-enethioate"
"InChI=1S/C5H4N2O4/c8-3-1-2(4(9)10)6-5(11)7-3/h1H,(H,9,10)(H2,6,7,8,11)",PXQPEWDEAKTCGB-UHFFFAOYSA-N,O=C1NC(=O)NC(=C1)C(O)=O,C8H9NO2,156.097,-1.0480,1,120.63,0,256.48312,1,"2,4-dioxo-1<I>H</I>-pyrimidine-6-carboxylic acid"
"InChI=1S/C10H13N2O11P/c13-5-1-3(9(16)17)12(10(18)11-5)8-7(15)6(14)4(23-8)2-22-24(19,20)21/h1,4,6-8,14-15H,2H2,(H,16,17)(H,11,13,18)(H2,19,20,21)",KYOBSHFOBAOFBF-UHFFFAOYSA-N,P(OCC1OC(N2C(=CC(=O)NC2=O)C(O)=O)C(O)C1O)(O)(O)=O,C9H10O3,368.19098,-3.6930,5,246.38,2,396.24271,0,"3-[3,4-dihydroxy-5-(phosphonooxymethyl)tetrahydrofuran-2-yl]-2,6-dioxo-pyrimidine-4-carboxylic acid"
"InChI=1S/C29H36N5O18P/c1-12(25(42)31-17(28(46)47)4-6-21(38)30-16(27(44)45)5-7-22(39)40)52-53(49,50)51-11-20(37)23(41)19(36)10-34-18-9-14(35)3-2-13(18)8-15-24(34)32-29(48)33-26(15)43/h2-3,8-9,12,16-17, 19-20,23,36-37,41H,4-7,10-11H2,1H3,(H,30,38)(H,31,42)(H",XXFFZHQKSZLLIT-UHFFFAOYSA-N,P(OC(C(=O)NC(CCC(=O)NC(CCC(O)=O)C(O)=O)C(O)=O)C)(OCC(O)C(O)C(O)CN1C2=CC(=O)C=CC2=CC2=C1NC(=O)NC2=O)(O)=O,C9H8O2,773.59796,-3.8540,22,589.63,3,572.24872,1,"2-[[4-carboxy-4-[2-[hydroxy-[2,3,4-trihydroxy-5-(2,4,8-trioxo-1<I>H</I>-pyrimido[4,5-b]quinolin-10-yl)pentoxy]phosphoryl]oxypropanoylamino]butanoyl]amino]pentanedioic acid"
"InChI=1S/C4H4O5/c5-2(4(8)9)1-3(6)7/h1H2,(H,6,7)(H,8,9)",KHPXUQMNIQBQEV-UHFFFAOYSA-N,OC(=O)C(=O)CC(O)=O,C10H11ClO3,132.071,-1.0570,3,100.13,0,240.42744,0,2-oxobutanedioic acid
"InChI=1S/C2H2O4/c3-1(4)2(5)6/h(H,3,4)(H,5,6)",MUBZPKHOEPUJKR-UHFFFAOYSA-N,OC(=O)C(O)=O,C10H11N3O3S,90.033997,-0.7000,1,66.38,0,216.14499,1,oxalic acid
"InChI=1S/C6H6O7/c7-3(8)1-2(5(10)11)4(9)6(12)13/h2H,1H2,(H,7,8)(H,10,11)(H,12,13)",UFSCUAXLTRFIDC-UHFFFAOYSA-N,OC(=O)C(C(=O)C(O)=O)CC(O)=O,C10H12O3,190.10699,-1.6070,5,137.38,0,297.68213,1,"1-oxopropane-1,2,3-tricarboxylic acid"
"InChI=1S/C23H36N7O19P3S/c1-23(2,16(33)19(34)26-4-3-12(31)25-5-6-53-22(37)21(35)36)8-46-52(43,44)49-51(41,42)45-7-11-15(48-50(38,39)40)14(32)20(47-11)30-10-29-13-17(24)27-9-28-18(13)30/h9-11,14-16,20,3 2-33H,3-8H2,1-2H3,(H,25,31)(H,26,34)(H,35,36)(H,41,42)(",QVXMZFTWJVBUHP-UHFFFAOYSA-N,S(C(=O)C(O)=O)CCNC(=O)CCNC(=O)C(O)C(COP(OP(OCC1OC(n2c3ncnc(N)c3nc2)C(O)C1OP(O)(O)=O)(O)=O)(O)=O)(C)C,C12H7Cl3O2,839.55896,-5.6539,23,579.25,3,703.88367,0,"2-[2-[3-[[4-[[[5-(6-aminopurin-9-yl)-4-hydroxy-3-phosphonooxy-tetrahydrofuran-2-yl]methoxy-hydroxy-phosphoryl]oxy-hydroxy-phosphoryl]oxy-2-hydroxy-3,3-dimethyl-butanoyl]amino]propanoylamino]ethylsulfa nyl]-2-oxo-acetic acid"
"InChI=1S/C2H3NO3/c3-1(4)2(5)6/h(H2,3,4)(H,5,6)",SOWBFZRMHSNYGE-UHFFFAOYSA-N,OC(=O)C(=O)N,C13H10N2O3S,89.049995,-3.8327,1,67.63,0,223.91415,1,oxamic acid
"InChI=1S/C20H32N6O12S2/c21-9(19(35)36)1-3-13(27)25-11(17(33)23-5-15(29)30)7-39-40-8-12(18(34)24-6-16(31)32)26-14(28)4-2-10(22)20(37)38/h9-12H,1-8,21-22H2,(H,23,33)(H,24,34)(H,25,27)(H,26,28)(H,29,30)( H,31,32)(H,35,36)(H,37,38)",YPZRWBKMTBYPTK-UHFFFAOYSA-N,S(SCC(NC(=O)CCC(N)C(O)=O)C(=O)NCC(O)=O)CC(NC(=O)CCC(N)C(O)=O)C(=O)NCC(O)=O,C13H18O2,612.638,-6.3627,25,467.13,3,628.09058,0,2-amino-5-[[1-[[[2-[(4-amino-4-carboxy-butanoyl)amino]-3-(carboxymethylamino)-3-oxo-propyl]disulfanyl]methyl]-2-(carboxymethylamino)-2-oxo-ethyl]amino]-5-oxo-pentanoic acid
"InChI=1S/C5H6O3/c1-2-3-4(6)5(7)8/h2H,1,3H2,(H,7,8)",NOXRYJAWRSNUJD-UHFFFAOYSA-N,OC(=O)C(=O)CC=C,C13H9Cl3N2O,114.1,0.1000,3,104.63,0,190.38115,1,2-oxopent-4-enoic acid
InChI=1S/O2/c1-2,MYMOFIZGZYHOMD-UHFFFAOYSA-N,O=O,C14H12O3,31.997999,0.2380,0,19.63,0,0,1,molecular oxygen
"InChI=1S/C7H7NO2/c8-6-3-1-5(2-4-6)7(9)10/h1-4H,8H2,(H,9,10)",ALYNCZNDIQEVRV-UHFFFAOYSA-N,OC(=O)c1ccc(N)cc1,C15H12N2O,137.138,0.9110,1,126.00,0,158.88155,0,4-aminobenzoic acid
"InChI=1S/C9H8O4/c10-7-3-1-6(2-4-7)5-8(11)9(12)13/h1-4,10H,5H2,(H,12,13)",KKADPXVIOXHVKN-UHFFFAOYSA-N,Oc1ccc(cc1)CC(=O)C(O)=O,C4H4KNO4S,180.159,0.9180,3,157.38,0,185.26021,1,3-(4-hydroxyphenyl)-2-oxo-propanoic acid
"InChI=1S/C6H5NO3/c8-6-3-1-5(2-4-6)7(9)10/h1-4,8H",BTJIUGUIPKRLHP-UHFFFAOYSA-N,Oc1ccc([N+](=O)[O-])cc1,C7H6O3,139.11,1.5330,1,120.75,0,130.66637,0,4-nitrophenol
"InChI=1S/C13H19N4O12P/c14-10-7(11(22)16-4(13(23)24)1-6(18)19)15-3-17(10)12-9(21)8(20)5(29-12)2-28-30(25,26)27/h3-5,8-9,12,20-21H,1-2,14H2,(H,16,22)(H,18,19)(H,23,24)(H2,25,26,27)",NAQGHJTUZRHGAC-UHFFFAOYSA-N,P(OCC1OC(n2cnc(C(=O)NC(CC(O)=O)C(O)=O)c2N)C(O)C1O)(O)(O)=O,C7H8N4O2,454.285,-4.6000,10,317.25,2,468.64661,1,"2-[[5-amino-1-[3,4-dihydroxy-5-(phosphonooxymethyl)tetrahydrofuran-2-yl]imidazole-4-carbonyl]amino]butanedioic acid"
"InChI=1S/C20H27N10O16P3/c21-15-9-17(25-3-23-15)29(5-27-9)19-13(33)11(31)7(43-19)1-41-47(35,36)45-49(39,40)46-48(37,38)42-2-8-12(32)14(34)20(44-8)30-6-28-10-16(22)24-4-26-18(10)30/h3-8,11-14,19-20,31-3 4H,1-2H2,(H,35,36)(H,37,38)(H,39,40)(H2,21,23,25)(H2,22",QCICUPZZLIQAPA-UHFFFAOYSA-N,P(OCC1OC(n2c3ncnc(N)c3nc2)C(O)C1O)(OP(OP(OCC1OC(n2c3ncnc(N)c3nc2)C(O)C1O)(O)=O)(O)=O)(O)=O,C8H10N4O2,756.41199,-6.4419,12,515.38,3,704.87042,1,"bis[[5-(6-aminopurin-9-yl)-3,4-dihydroxy-tetrahydrofuran-2-yl]methoxy-hydroxy-phosphoryl] hydrogen phosphate"
"InChI=1S/H5O10P3/c1-11(2,3)9-13(7,8)10-12(4,5)6/h(H,7,8)(H2,1,2,3)(H2,4,5,6)",UNXRWKVEANCORM-UHFFFAOYSA-N,P(OP(O)(O)=O)(OP(O)(O)=O)(O)=O,C8H14ClN5,257.952,-3.4980,4,116.38,0,354.32278,1,diphosphono hydrogen phosphate
"InChI=1S/C16H32O/c1-2-3-4-5-6-7-8-9-10-11-12-13-14-15-16-17/h16H,2-15H2,1H3",NIOYUNMRJMEDGI-UHFFFAOYSA-N,O=CCCCCCCCCCCCCCCC,C8H8O3,240.431,6.3920,14,258.50,1,52.430943,0,hexadecanal
"InChI=1S/C16H32O2/c1-2-3-4-5-6-7-8-9-10-11-12-13-14-15-16(17)18/h2-15H2,1H3,(H,17,18)",IPCSVZSSVZVIGE-UHFFFAOYSA-N,OC(=O)CCCCCCCCCCCCCCC,C8H9NO2,256.42999,6.1420,14,265.88,1,94.008965,1,palmitic acid
"InChI=1S/C37H66N7O17P3S/c1-4-5-6-7-8-9-10-11-12-13-14-15-16-17-28(46)65-21-20-39-27(45)18-19-40-35(49)32(48)37(2,3)23-58-64(55,56)61-63(53,54)57-22-26-31(60-62(50,51)52)30(47)36(59-26)44-25-43-29-33(3 8)41-24-42-34(29)44/h24-26,30-32,36,47-48H,4-23H2,1-3H3",MNBKLUUYKPBKDU-UHFFFAOYSA-N,S(C(=O)CCCCCCCCCCCCCCC)CCNC(=O)CCNC(=O)C(O)C(COP(OP(OCC1OC(n2c3ncnc(N)c3nc2)C(O)C1OP(O)(O)=O)(O)=O)(O)=O)(C)C,C9H10O3,1005.955,1.1881,36,779.75,3,575.33289,1,"<I>S</I>-[2-[3-[[4-[[[5-(6-aminopurin-9-yl)-4-hydroxy-3-phosphonooxy-tetrahydrofuran-2-yl]methoxy-hydroxy-phosphoryl]oxy-hydroxy-phosphoryl]oxy-2-hydroxy-3,3-dimethyl-butanoyl]amino]propanoylamino]eth yl] hexadecanethioate"
"InChI=1S/C11H23N2O7PS/c1-11(2,7-20-21(17,18)19)9(15)10(16)13-4-3-8(14)12-5-6-22/h9,15,22H,3-7H2,1-2H3,(H,12,14)(H,13,16)(H2,17,18,19)",JDMUPRLRUUMCTL-UHFFFAOYSA-N,SCCNC(=O)CCNC(=O)C(O)C(COP(O)(O)=O)(C)C,C9H8O2,358.35199,-1.8720,12,264.88,0,330.18564,0,"[3-hydroxy-2,2-dimethyl-4-oxo-4-[[3-oxo-3-(2-sulfanylethylamino)propyl]amino]butyl] dihydrogen phosphate"
"InChI=1S/C9H17NO5/c1-9(2,5-11)7(14)8(15)10-4-3-6(12)13/h7,11,14H,3-5H2,1-2H3,(H,10,15)(H,12,13)",GHOKWGTUZJEAQD-UHFFFAOYSA-N,OC(C(CO)(C)C)C(=O)NCCC(O)=O,C10H11ClO3,219.237,-1.0580,7,178.88,0,207.38376,1,"3-[(2,4-dihydroxy-3,3-dimethyl-butanoyl)amino]propanoic acid"
"InChI=1S/C6H10O3/c1-6(2)3-9-5(8)4(6)7/h4,7H,3H2,1-2H3",SERHXTVXHNVDKA-UHFFFAOYSA-N,O1CC(C)(C)C(O)C1=O,C10H11N3O3S,130.14299,0.3330,0,106.50,0,118.72347,0,"3-hydroxy-4,4-dimethyl-tetrahydrofuran-2-one"
"InChI=1S/C10H15N5O13P2S/c11-8-5-9(13-2-12-8)15(3-14-5)10-6(16)7(27-29(17,18)19)4(26-10)1-25-30(20,21)28-31(22,23)24/h2-4,6-7,10,16H,1H2,(H,20,21)(H2,11,12,13)(H2,17,18,19)(H,22,23,24)",GACDQMDRPRGCTN-UHFFFAOYSA-N,S(OP(OCC1OC(n2c3ncnc(N)c3nc2)C(O)C1OP(O)(O)=O)(O)=O)(O)(=O)=O,C10H12O3,507.26599,-4.3929,8,315.13,3,495.28003,1,[5-(6-aminopurin-9-yl)-4-hydroxy-3-phosphonooxy-tetrahydrofuran-2-yl]methyl sulfo hydrogen phosphate
InChI=1S/C6HCl5O/c7-1-2(8)4(10)6(12)5(11)3(1)9/h12H,IZUPBVBPLAPZRR-UHFFFAOYSA-N,Clc1c(O)c(Cl)c(Cl)c(Cl)c1Cl,C12H7Cl3O2,266.33798,4.5460,0,167.75,0,34.857662,1,"2,3,4,5,6-pentachlorophenol"
"InChI=1S/C5H10O5/c6-1-2-3(7)4(8)5(9)10-2/h2-9H,1H2",HMFHBZSHGGEWLO-UHFFFAOYSA-N,O1C(CO)C(O)C(O)C1O,C13H10N2O3S,150.12999,-2.3590,1,109.13,0,174.53319,0,"5-(hydroxymethyl)tetrahydrofuran-2,3,4-triol"
"InChI=1S/C9H11NO2/c10-8(9(11)12)6-7-4-2-1-3-5-7/h1-5,8H,6,10H2,(H,11,12)",COLNVLDHVKWLRT-UHFFFAOYSA-N,OC(=O)C(N)Cc1ccccc1,C13H18O2,165.192,-1.5227,3,155.63,0,127.11474,1,2-amino-3-phenyl-propanoic acid
InChI=1S/C14H10/c1-3-7-13-11(5-1)9-10-12-6-2-4-8-14(12)13/h1-10H,YNPNZTXNASCQKK-UHFFFAOYSA-N,c12c3c(ccc1cccc2)cccc3,C13H9Cl3N2O,178.23399,4.3480,0,194.25,0,0,0,phenanthrene
"InChI=1S/C6H6O/c7-6-4-2-1-3-5-6/h1-5,7H",ISWSIDIOOBJBQZ-UHFFFAOYSA-N,Oc1ccccc1,C14H12O3,94.112999,1.5980,0,98.50,0,48.810955,1,phenol
"InChI=1S/C9H8O3/c10-8(9(11)12)6-7-4-2-1-3-5-7/h1-5H,6H2,(H,11,12)",BTNMPGBKDVTSJY-UHFFFAOYSA-N,OC(=O)C(=O)Cc1ccccc1,C15H12N2O,164.15999,1.2260,3,153.50,0,142.90689,1,2-oxo-3-phenyl-propanoic acid
"InChI=1S/C8H11NO/c9-6-8(10)7-4-2-1-3-5-7/h1-5,8,10H,6,9H2",ULSIYEODSMZIPX-UHFFFAOYSA-N,OC(CN)c1ccccc1,C4H4KNO4S,137.18199,0.5890,2,135.63,0,108.73744,0,2-amino-1-phenyl-ethanol
"InChI=1S/C9H8N2O2/c12-8-7(10-9(13)11-8)6-4-2-1-3-5-6/h1-5,7H,(H2,10,11,12,13)",NXQJDVBMMRCKQG-UHFFFAOYSA-N,O=C1NC(=O)NC1c1ccccc1,C7H6O3,176.175,0.5950,1,159.63,0,159.9713,1,"5-phenylimidazolidine-2,4-dione"
"InChI=1S/H3O4P/c1-5(2,3)4/h(H3,1,2,3,4)/p-1",NBIIXXVUZAFLBC-UHFFFAOYSA-M,P(O)(O)(=O)[O-],C7H8N4O2,96.986,-1.7840,0,46.38,0,203.46657,0,dihydrogen phosphate
"InChI=1S/H3O4P/c1-5(2,3)4/h(H3,1,2,3,4)",NBIIXXVUZAFLBC-UHFFFAOYSA-N,P(O)(O)(O)=O,C8H10N4O2,97.993996,-1.7340,0,46.38,0,211.28151,1,phosphoric acid
"InChI=1S/C3H5O6P/c1-2(3(4)5)9-10(6,7)8/h1H2,(H,4,5)(H2,6,7,8)",DTBNBXWJWCWCIK-UHFFFAOYSA-N,P(OC(C(O)=O)=C)(O)(O)=O,C8H14ClN5,168.041,-1.0070,3,106.50,0,275.38016,1,2-phosphonooxyprop-2-enoic acid
"InChI=1S/C4H10NO7P/c5-3(4(7)8)2(6)1-12-13(9,10)11/h2-3,6H,1,5H2,(H,7,8)(H2,9,10,11)/p-1",FKHAKIJOKDGEII-UHFFFAOYSA-M,P(OCC(O)C(N)C(=O)[O-])(O)(O)=O,C8H8O3,214.09,-3.0330,5,135.63,0,295.20932,0,2-amino-3-hydroxy-4-phosphonooxy-butanoate
"InChI=1S/C4H10NO7P/c5-3(4(7)8)2(6)1-12-13(9,10)11/h2-3,6H,1,5H2,(H,7,8)(H2,9,10,11)",FKHAKIJOKDGEII-UHFFFAOYSA-N,P(OCC(O)C(N)C(O)=O)(O)(O)=O,C8H9NO2,215.09799,-5.5527,5,135.63,1,328.90973,1,2-amino-3-hydroxy-4-phosphonooxy-butanoic acid
"InChI=1S/C15H23N5O14P2/c16-12-7-13(18-4-19(12)14-10(23)8(21)5(33-14)1-31-35(25,26)27)20(3-17-7)15-11(24)9(22)6(34-15)2-32-36(28,29)30/h3-6,8-11,14-16,21-24H,1-2H2,(H4,25,26,27,28,29,30)/p+1",PJTKTOMRVMPIEN-UHFFFAOYSA-O,P(OCC1OC(n2c3nc[n+](C4OC(COP(O)(O)=O)C(O)C4O)c(N)c3nc2)C(O)C1O)(O)(O)=O,C9H10O3,560.32599,-5.1629,8,381.63,3,541.12433,0,"[5-[6-amino-1-[3,4-dihydroxy-5-(phosphonooxymethyl)tetrahydrofuran-2-yl]purin-1-ium-9-yl]-3,4-dihydroxy-tetrahydrofuran-2-yl]methyl dihydrogen phosphate"
"InChI=1S/C15H25N5O20P4/c16-12-7-13(18-4-19(12)14-10(23)8(21)5(37-14)1-35-41(25,26)27)20(3-17-7)15-11(24)9(22)6(38-15)2-36-43(31,32)40-44(33,34)39-42(28,29)30/h3-6,8-11,14-16,21-24H,1-2H2,(H6,25,26,27, 28,29,30,31,32,33,34)/p+1",KYTPWZMUSLPBJZ-UHFFFAOYSA-O,P(OCC1OC(n2c3nc[n+](C4OC(COP(O)(O)=O)C(O)C4O)c(N)c3nc2)C(O)C1O)(OP(OP(O)(O)=O)(O)=O)(O)=O,C9H8O2,720.284,-6.9269,12,446.00,3,680.05157,1,"[[5-[6-amino-1-[3,4-dihydroxy-5-(phosphonooxymethyl)tetrahydrofuran-2-yl]purin-1-ium-9-yl]-3,4-dihydroxy-tetrahydrofuran-2-yl]methoxy-hydroxy-phosphoryl] phosphono hydrogen phosphate"
"InChI=1S/C9H14N3O9P/c10-7-4(9(15)16)11-2-12(7)8-6(14)5(13)3(21-8)1-20-22(17,18)19/h2-3,5-6,8,13-14H,1,10H2,(H,15,16)(H2,17,18,19)",XFVULMDJZXYMSG-UHFFFAOYSA-N,P(OCC1OC(n2cnc(C(O)=O)c2N)C(O)C1O)(O)(O)=O,C10H11ClO3,339.19699,-3.4410,5,235.13,2,384.17859,1,"5-amino-1-[3,4-dihydroxy-5-(phosphonooxymethyl)tetrahydrofuran-2-yl]imidazole-4-carboxylic acid"
"InChI=1S/C10H15N4O9P/c11-8(18)5-9(13-3-15)14(2-12-5)10-7(17)6(16)4(23-10)1-22-24(19,20)21/h2-4,6-7,10,16-17H,1H2,(H2,11,18)(H,13,15)(H2,19,20,21)",ABCOOORLYAOBOZ-UHFFFAOYSA-N,P(OCC1OC(n2cnc(C(=O)N)c2NC=O)C(O)C1O)(O)(O)=O,C10H11N3O3S,366.22299,-4.2350,7,257.38,2,395.26419,0,"[5-(4-carbamoyl-5-formamido-imidazol-1-yl)-3,4-dihydroxy-tetrahydrofuran-2-yl]methyl dihydrogen phosphate"
"InChI=1S/C15H25N5O15P2/c16-12(25)7-13(17-3-18-14-10(23)8(21)5(34-14)1-32-36(26,27)28)20(4-19-7)15-11(24)9(22)6(35-15)2-33-37(29,30)31/h3-6,8-11,14-15,21-24H,1-2H2,(H2,16,25)(H,17,18)(H2,26,27,28)(H2,2 9,30,31)",QOUSHGMTBIIAHR-UHFFFAOYSA-N,P(OCC1OC(N=CNc2n(cnc2C(=O)N)C2OC(COP(O)(O)=O)C(O)C2O)C(O)C1O)(O)(O)=O,C10H12O3,577.33301,-6.6120,11,389.88,3,561.67047,1,"[5-[(E)-[[5-carbamoyl-3-[3,4-dihydroxy-5-(phosphonooxymethyl)tetrahydrofuran-2-yl]imidazol-4-yl]amino]methyleneamino]-3,4-dihydroxy-tetrahydrofuran-2-yl]methyl dihydrogen phosphate"
"InChI=1S/C15H25N5O15P2/c16-13(26)9-14(18-4-17-1-6(21)10(23)7(22)2-33-36(27,28)29)20(5-19-9)15-12(25)11(24)8(35-15)3-34-37(30,31)32/h4-5,7-8,10-12,15,22-25H,1-3H2,(H2,16,26)(H,17,18)(H2,27,28,29)(H2,30 ,31,32)",BLKFNHOCHNCLII-UHFFFAOYSA-N,P(OCC1OC(n2cnc(C(=O)N)c2N\C=N\CC(=O)C(O)C(O)COP(O)(O)=O)C(O)C1O)(O)(O)=O,C12H7Cl3O2,577.33301,-6.9420,14,399.75,3,612.48926,0,"[5-[4-carbamoyl-5-[[(<I>E</I>)-(3,4-dihydroxy-2-oxo-5-phosphonooxy-pentyl)iminomethyl]amino]imidazol-1-yl]-3,4-dihydroxy-tetrahydrofuran-2-yl]methyl dihydrogen phosphate"
"InChI=1S/C5H14NO4P/c1-6(2,3)4-5-10-11(7,8)9/h4-5H2,1-3H3,(H-,7,8,9)/p+1",YHHSONZFOIEMCP-UHFFFAOYSA-O,P(OCC[N+](C)(C)C)(O)(O)=O,C13H10N2O3S,184.15199,-1.7350,4,138.25,0,200.97096,1,trimethyl(2-phosphonooxyethyl)ammonium
"InChI=1S/C2H8NO4P/c3-1-2-7-8(4,5)6/h1-3H2,(H2,4,5,6)",SUHOOTKUPISOBE-UHFFFAOYSA-N,P(OCCN)(O)(O)=O,C13H18O2,141.063,-2.2070,3,90.50,0,235.74352,1,2-aminoethyl dihydrogen phosphate
"InChI=1S/C4H10NO6P/c1-2(3(5)4(6)7)11-12(8,9)10/h2-3H,5H2,1H3,(H,6,7)(H2,8,9,10)",USRGIUJOYOXOQJ-UHFFFAOYSA-N,P(OC(C(N)C(O)=O)C)(O)(O)=O,C13H9Cl3N2O,199.099,-4.5177,4,128.75,0,271.05023,0,2-amino-3-phosphonooxy-butanoic acid
"InChI=1S/C8H6O4/c9-7(10)5-3-1-2-4-6(5)8(11)12/h1-4H,(H,9,10)(H,11,12)",XNGIFLGASWRNHJ-UHFFFAOYSA-N,OC(=O)c1ccccc1C(O)=O,C14H12O3,166.13199,1.2580,2,142.00,0,171.64995,1,phthalic acid
"InChI=1S/C6H5NO2/c8-6(9)5-3-1-2-4-7-5/h1-4H,(H,8,9)",SIOXPEMLGUPBBT-UHFFFAOYSA-N,OC(=O)c1ncccc1,C15H12N2O,123.111,0.3120,1,115.38,0,119.74237,0,pyridine-2-carboxylic acid
"InChI=1S/C9H18O7P2/c1-9(2)7-5-3-4-6-8-15-18(13,14)16-17(10,11)12/h4,6-7H,3,5,8H2,1-2H3,(H,13,14)(H2,10,11,12)",YJTQQQQPZUKKGG-UHFFFAOYSA-N,P(OCC=CCCC=C(C)C)(OP(O)(O)=O)(O)=O,C4H4KNO4S,300.18399,-0.5390,8,221.50,0,264.15396,1,"[(2<I>E</I>)-7-methylocta-2,6-dienyl] phosphono hydrogen phosphate"
"InChI=1S/C10H14N2O4/c11-4-8-7(3-10(15)16)6(5-12-8)1-2-9(13)14/h5,12H,1-4,11H2,(H,13,14)(H,15,16)",QSHWIQZFGQKFMA-UHFFFAOYSA-N,OC(=O)Cc1c(c[nH]c1CN)CCC(O)=O,C7H6O3,226.23199,-0.4940,6,190.75,0,285.21866,1,3-[5-(aminomethyl)-4-(carboxymethyl)-1<I>H</I>-pyrrol-3-yl]propanoic acid
"InChI=1S/H4O7P2/c1-8(2,3)7-9(4,5)6/h(H2,1,2,3)(H2,4,5,6)",XPPKVPWEQAFLFU-UHFFFAOYSA-N,P(OP(O)(O)=O)(O)(O)=O,C7H8N4O2,177.97299,-2.6160,2,82.25,0,292.91205,0,phosphono dihydrogen phosphate
"InChI=1S/C14H6N2O8/c17-10-4-2-6(14(23)24)15-8(4)7-3(12(19)20)1-5(13(21)22)16-9(7)11(10)18/h1-2,15H,(H,19,20)(H,21,22)(H,23,24)",MMXZSJMASHPLLR-UHFFFAOYSA-N,O=C1c2cc([nH]c2-c2c(nc(cc2C(O)=O)C(O)=O)C1=O)C(O)=O,C8H10N4O2,330.20798,-0.5510,3,256.13,0,407.87201,1,"4,5-dioxo-1<I>H</I>-pyrrolo[2,3-f]quinoline-2,7,9-tricarboxylic acid"
"InChI=1S/C10H16N5O7P/c11-10-14-8-5(9(18)15-10)13-3(1-12-8)6(17)7-4(16)2-21-23(19,20)22-7/h1,4-8,12-13,16-17H,2H2,(H,19,20)(H3,11,14,15,18)/p-1",ABETXLPRGREJND-UHFFFAOYSA-M,P1(OC(C(O)C=2NC3C(N=C(NC3=O)N)NC=2)C(O)CO1)(=O)[O-],C8H14ClN5,348.23199,-4.2880,2,246.00,2,353.02716,0,"2-amino-6-[hydroxy-(5-hydroxy-2-oxido-2-oxo-1,3,2&lambda;<sup>5</sup>-dioxaphosphinan-4-yl)methyl]-4<I>a</I>,5,8,8<I>a</I>-tetrahydro-3<I>H</I>-pteridin-4-one"
"InChI=1S/C10H16N5O7P/c11-10-14-8-5(9(18)15-10)13-3(1-12-8)6(17)7-4(16)2-21-23(19,20)22-7/h1,4-8,12-13,16-17H,2H2,(H,19,20)(H3,11,14,15,18)",ABETXLPRGREJND-UHFFFAOYSA-N,P1(OC(C(O)C=2NC3C(N=C(NC3=O)N)NC=2)C(O)CO1)(O)=O,C8H8O3,349.23999,-4.2380,2,246.00,2,351.53882,1,"2-amino-6-[(2,5-dihydroxy-2-oxo-1,3,2&lambda;<sup>5</sup>-dioxaphosphinan-4-yl)-hydroxy-methyl]-4<I>a</I>,5,8,8<I>a</I>-tetrahydro-3<I>H</I>-pteridin-4-one"
"InChI=1S/C21H32O2/c1-13(22)17-6-7-18-16-5-4-14-12-15(23)8-10-20(14,2)19(16)9-11-21(17,18)3/h4,15-19,23H,5-12H2,1-3H3",ORNBQBCIOKFOEO-UHFFFAOYSA-N,OC1CC2=CCC3C4CCC(C(=O)C)C4(CCC3C2(CC1)C)C,C8H9NO2,316.48499,3.1730,1,274.00,0,91.079155,1,"1-(3-hydroxy-10,13-dimethyl-2,3,4,7,8,9,11,12,14,15,16,17-dodecahydro-1<I>H</I>-cyclopenta[a]phenanthren-17-yl)ethanone"
"InChI=1S/C10H10O6/c11-6-1-3-10(4-2-6,9(15)16)5-7(12)8(13)14/h1-4,6,11H,5H2,(H,13,14)(H,15,16)",FPWMCUPFBRFMLH-UHFFFAOYSA-N,OC1C=CC(C=C1)(CC(=O)C(O)=O)C(O)=O,C9H10O3,226.18399,-0.2560,4,173.25,0,278.48788,0,"1-(2-carboxy-2-oxo-ethyl)-4-hydroxy-cyclohexa-2,5-diene-1-carboxylic acid"
"InChI=1S/C6H14N2O3/c7-3-4(9)1-2-5(8)6(10)11/h4-5,9H,1-3,7-8H2,(H,10,11)",YSMODUONRAFBET-UHFFFAOYSA-N,OC(CCC(N)C(O)=O)CN,C9H8O2,162.189,-4.0037,5,133.75,1,242.98677,1,"2,6-diamino-5-hydroxy-hexanoic acid"
"InChI=1S/C3H8O/c1-2-3-4/h4H,2-3H2,1H3",BDERNNFJNOPAEC-UHFFFAOYSA-N,OCCC,C10H11ClO3,60.095997,0.5510,1,62.88,0,59.816559,0,propan-1-ol
"InChI=1S/C3H6O2/c1-2-3(4)5/h2H2,1H3,(H,4,5)",XBDQKXXYIPTUBI-UHFFFAOYSA-N,OC(=O)CC,C10H11N3O3S,74.078995,0.3960,1,67.13,0,100.34794,1,propionic acid
"InChI=1S/C24H40N7O17P3S/c1-4-15(33)52-8-7-26-14(32)5-6-27-22(36)19(35)24(2,3)10-45-51(42,43)48-50(40,41)44-9-13-18(47-49(37,38)39)17(34)23(46-13)31-12-30-16-20(25)28-11-29-21(16)31/h11-13,17-19,23,34- 35H,4-10H2,1-3H3,(H,26,32)(H,27,36)(H,40,41)(H,42,43)(H",QAQREVBBADEHPA-UHFFFAOYSA-N,S(C(=O)CC)CCNC(=O)CCNC(=O)C(O)C(COP(OP(OCC1OC(n2c3ncnc(N)c3nc2)C(O)C1OP(O)(O)=O)(O)=O)(O)=O)(C)C,C10H12O3,823.604,-4.5579,23,582.25,3,582.63855,1,"<I>S</I>-[2-[3-[[4-[[[5-(6-aminopurin-9-yl)-4-hydroxy-3-phosphonooxy-tetrahydrofuran-2-yl]methoxy-hydroxy-phosphoryl]oxy-hydroxy-phosphoryl]oxy-2-hydroxy-3,3-dimethyl-butanoyl]amino]propanoylamino]eth yl] propanethioate"
"InChI=1S/C3H7O5P/c1-2-3(4)8-9(5,6)7/h2H2,1H3,(H2,5,6,7)",FMNMEQSRDWIBFO-UHFFFAOYSA-N,P(OC(=O)CC)(O)(O)=O,C12H7Cl3O2,154.058,-0.8390,3,102.13,0,193.5517,0,phosphono propanoate
"InChI=1S/C20H32O5/c1-2-3-6-9-15(21)12-13-17-16(18-14-19(17)25-24-18)10-7-4-5-8-11-20(22)23/h4,7,12-13,15-19,21H,2-3,5-6,8-11,14H2,1H3,(H,22,23)",YIBNHAJFJUQSRA-UHFFFAOYSA-N,O1OC2CC1C(CC=CCCCC(O)=O)C2C=CC(O)CCCCC,C13H10N2O3S,352.47098,3.5950,12,321.00,0,213.61653,1,"(<I>E</I>)-7-[5-[(<I>E</I>)-3-hydroxyoct-1-enyl]-2,3-dioxabicyclo[2.2.1]heptan-6-yl]hept-5-enoic acid"
"InChI=1S/C34H46N4O4/c1-7-21-17(3)25-13-26-19(5)23(9-11-33(39)40)31(37-26)16-32-24(10-12-34(41)42)20(6)28(38-32)15-30-22(8-2)18(4)27(36-30)14-29(21)35-25/h7-8,13-22,24-25,29-30,35-38H,1-2,9-12H2,3-6H3, (H,39,40)(H,41,42)",AYFBGXSBTUKFIE-UHFFFAOYSA-N,OC(=O)CCC1C=2NC(=CC3NC(=CC4NC(C=C5NC(C=2)=C(CCC(O)=O)C5C)C(C)C4C=C)C(C)C3C=C)C1C,C13H18O2,574.76599,4.3280,8,520.75,2,323.8631,0,"3-[(1<I>Z</I>,4<I>Z</I>,9<I>Z</I>,15<I>Z</I>)-18-(2-carboxyethyl)-3,8,13,17-tetramethyl-7,12-divinyl-2,3,6,7,8,11,12,13,14,17,21,22,23,24-tetradecahydroporphyrin-2-yl]propanoic acid"
InChI=1S/p+1,GPRLSGONYQIRFK-UHFFFAOYSA-N,[H+],C13H9Cl3N2O,1.008,0.1030,0,7.13,0,84.948669,1,hydron