InChI,Key,smiles,Formula,Weight,logP(o/w),b_rotN,vol,lip_violation,ASA_P,Natural,ChemicalName
"InChI=1S/C16H22N2O3/c1-2-21-16(20)13-6-8-14(9-7-13)17-15(19)12-18-10-4-3-5-11-18/h6-9H,2-5,10-12H2,1H3,(H,17,19)",QLGIFPJNYPWBMQ-UHFFFAOYSA-N,O(C(=O)c1ccc(NC(=O)CN2CCCCC2)cc1)CC,C8H14ClN5,290.36301,2.2040,7,275.38,0,116.73881,1,ethyl 4-[[2-(1-piperidyl)acetyl]amino]benzoate
"InChI=1S/C20H32O/c1-3-20(21)13-11-18-17-9-8-14-6-4-5-7-15(14)16(17)10-12-19(18,20)2/h6,15-18,21H,3-5,7-13H2,1-2H3",AOXRBFRFYPMWLR-UHFFFAOYSA-N,OC1(CCC2C3C(C4C(CC3)=CCCC4)CCC12C)CC,C8H8O3,288.47501,4.6540,1,264.75,1,42.568626,0,"17-ethyl-13-methyl-2,3,6,7,8,9,10,11,12,14,15,16-dodecahydro-1<I>H</I>-cyclopenta[a]phenanthren-17-ol"
"InChI=1S/C19H23NO3/c1-3-22-15-7-4-11-10-13-12-5-6-14(21)18-19(12,8-9-20(13)2)16(11)17(15)23-18/h4-7,12-14,18,21H,3,8-10H2,1-2H3",OGDVEMNWJVYAJL-UHFFFAOYSA-N,O1C2C34C(C(N(CC3)C)Cc3c4c1c(OCC)cc3)C=CC2O,C8H9NO2,313.397,1.5420,2,262.25,0,108.94443,1,"9-ethoxy-3-methyl-2,4,4<I>a</I>,7,7<I>a</I>,13-hexahydro-1<I>H</I>-4,12-methanobenzofuro[3,2-e]isoquinoline-7-ol"
"InChI=1S/C24H32O4/c1-5-24(28-16(3)26)13-11-22-21-8-6-17-14-18(27-15(2)25)7-9-19(17)20(21)10-12-23(22,24)4/h1,14,18-22H,6-13H2,2-4H3",ONKUMRGIYFNPJW-UHFFFAOYSA-N,O(C(=O)C)C1(CCC2C3C(C4C(=CC(OC(=O)C)CC4)CC3)CCC12C)C#C,C9H10O3,384.51599,4.5220,5,343.75,0,91.475731,1,"(17-acetoxy-17-ethynyl-13-methyl-2,3,6,7,8,9,10,11,12,14,15,16-dodecahydro-1<I>H</I>-cyclopenta[a]phenanthren-3-yl) acetate"
"InChI=1S/C2H8O7P2/c1-2(3,10(4,5)6)11(7,8)9/h3H,1H3,(H2,4,5,6)(H2,7,8,9)",DBVJJBKOTRCVKF-UHFFFAOYSA-N,P(O)(O)(=O)C(P(O)(O)=O)(O)C,C9H8O2,206.02699,-3.0520,2,96.75,0,266.69427,0,(1-hydroxy-1-phosphono-ethyl)phosphonic acid
"InChI=1S/C10H15NO2/c1-2-11-7-10(13)8-4-3-5-9(12)6-8/h3-6,10-13H,2,7H2,1H3",SQVIAVUSQAWMKL-UHFFFAOYSA-N,Oc1cc(ccc1)C(O)CNCC,C10H11ClO3,181.235,1.1840,4,175.38,0,101.22153,1,3-[2-(ethylamino)-1-hydroxy-ethyl]phenol
"InChI=1S/C17H21NO3/c1-3-11-6-5-7-12-13-8-9-21-17(4-2,10-14(19)20)16(13)18-15(11)12/h5-7,18H,3-4,8-10H2,1-2H3,(H,19,20)",NNYBQONXHNTVIJ-UHFFFAOYSA-N,O1CCc2c([nH]c3c2cccc3CC)C1(CC(O)=O)CC,C10H12O3,287.35898,3.5710,4,261.25,0,102.67204,1,"2-(1,8-diethyl-4,9-dihydro-3<I>H</I>-pyrano[3,4-b]indol-1-yl)acetic acid"
"InChI=1S/C23H29N3O2/c1-2-26-22(20-8-4-5-9-21(20)23(26)27)24-18-10-12-19(13-11-18)28-17-16-25-14-6-3-7-15-25/h4-5,8-13,22,24H,2-3,6-7,14-17H2,1H3",ITIONVBQFUNVJV-UHFFFAOYSA-N,O(CCN1CCCCC1)c1ccc(NC2N(CC)C(=O)c3c2cccc3)cc1,C12H7Cl3O2,379.504,3.8290,7,368.50,0,82.823105,1,2-ethyl-3-[4-[2-(1-piperidyl)ethoxy]anilino]isoindolin-1-one
"InChI=1S/C29H32O13/c1-11-36-9-20-27(40-11)24(31)25(32)29(41-20)42-26-14-7-17-16(38-10-39-17)6-13(14)21(22-15(26)8-37-28(22)33)12-4-18(34-2)23(30)19(5-12)35-3/h4-7,11,15,20-22,24-27,29-32H,8-10H2,1-3H3",VJJPUSNTGOMMGY-UHFFFAOYSA-N,O1C2C(OC(OC2)C)C(O)C(O)C1OC1C2C(C(c3c1cc1OCOc1c3)c1cc(OC)c(O)c(OC)c1)C(OC2)=O,C13H10N2O3S,588.56201,1.6160,5,478.75,2,323.66467,0,"5-[(7,8-dihydroxy-2-methyl-4,4<I>a</I>,6,7,8,8<I>a</I>-hexahydropyrano[3,2-d][1,3]dioxin-6-yl)oxy]-9-(4-hydroxy-3,5-dimethoxy-phenyl)-5<I>a</I>,6,8<I>a</I>,9-tetrahydro-5<I>H</I>-isobenzofuro[6,5-f][1 ,3]benzodioxol-8-one"
"InChI=1S/C10H11F3N2S/c1-2-16-9(14)15-8-5-3-7(4-6-8)10(11,12)13/h3-6H,2H2,1H3,(H2,14,15)",LCMOXIFARISMOH-UHFFFAOYSA-N,S(\C(=N/c1ccc(cc1)C(F)(F)F)\N)CC,C13H18O2,248.272,3.6318,4,197.50,0,211.39407,1,2-ethyl-3-[4-(trifluoromethyl)phenyl]isothiourea
"InChI=1S/C23H30O3/c1-8-26-23(24)14-17(3)11-9-10-16(2)12-13-21-18(4)15-22(25-7)20(6)19(21)5/h9-15H,8H2,1-7H3",HQMNCQVAMBCHCO-UHFFFAOYSA-N,O(C)c1cc(C)c(C=CC(=CC=CC(=CC(OCC)=O)C)C)c(C)c1C,C13H9Cl3N2O,354.48999,5.7310,8,371.25,1,73.836143,0,"ethyl (2<I>E</I>,4<I>E</I>,6<I>E</I>,8<I>E</I>)-9-(4-methoxy-2,3,6-trimethyl-phenyl)-3,7-dimethyl-nona-2,4,6,8-tetraenoate"
"InChI=1S/C17H25NO3/c1-12-14(10-11-17(2,3)18(12)4)21-16(20)15(19)13-8-6-5-7-9-13/h5-9,12,14-15,19H,10-11H2,1-4H3",SXLHPJQSZRLJAE-UHFFFAOYSA-N,O(C(=O)C(O)c1ccccc1)C1CCC(N(C)C1C)(C)C,C14H12O3,291.39099,3.1350,4,274.38,0,97.749298,1,"(1,2,6,6-tetramethyl-3-piperidyl) 2-hydroxy-2-phenyl-acetate"
"InChI=1S/C13H19NO2/c1-2-3-4-7-10-16-12-9-6-5-8-11(12)13(14)15/h5-6,8-9H,2-4,7,10H2,1H3,(H2,14,15)",CKSJXOVLXUMMFF-UHFFFAOYSA-N,O(CCCCCC)c1ccccc1C(=O)N,C15H12N2O,221.29999,3.0840,7,221.88,0,95.98085,1,2-hexoxybenzamide
"InChI=1S/C23H38FNO/c1-3-4-5-6-7-8-9-10-11-12-13-14-15-16-17-18-19-22(2)23(26)25-21-20-24/h7-8,10-11,13-14,16-17,22H,3-6,9,12,15,18-21H2,1-2H3,(H,25,26)",HMMNZALKMVCHHZ-UHFFFAOYSA-N,FCCNC(=O)C(CCC=CCC=CCC=CCC=CCCCCC)C,C7H6O3,363.561,5.2870,17,385.00,1,208.20476,1,"(5<I>E</I>,8<I>E</I>,11<I>E</I>,14<I>E</I>)-<I>N</I>-(2-fluoroethyl)-2-methyl-icosa-5,8,11,14-tetraenamide"
"InChI=1S/C17H24O2/c1-3-5-6-7-8-9-10-14-17(19)15-12-11-13-16(18)4-2/h4,10,14,16-19H,2-3,5-9H2,1H3",QWCNQXNAFCBLLV-UHFFFAOYSA-N,OC(C=CCCCCCCC)C#CC#CC(O)C=C,C8H14ClN5,260.37698,4.7530,11,281.63,0,184.56647,1,"(9<I>E</I>)-heptadeca-1,9-dien-4,6-diyne-3,8-diol"
"InChI=1S/C17H24O/c1-3-5-6-7-8-9-10-11-12-13-14-15-16-17(18)4-2/h4,10-11,17-18H,2-3,5-9,12H2,1H3",UGJAEDFOKNAMQD-UHFFFAOYSA-N,OC(C=C)C#CC#CCC=CCCCCCCC,C8H8O3,244.37799,5.4140,11,279.75,0,150.14067,0,"(9<I>E</I>)-heptadeca-1,9-dien-4,6-diyn-3-ol"
"InChI=1S/C27H38F6O3/c1-16(6-4-13-25(36,26(28,29)30)27(31,32)33)21-10-11-22-18(7-5-12-24(21,22)3)8-9-19-14-20(34)15-23(35)17(19)2/h8-9,16,20-23,34-36H,2,4-7,10-15H2,1,3H3",XPYGGHVSFMUHLH-UHFFFAOYSA-N,FC(F)(F)C(O)(CCCC(C)C1CCC2C1(CCCC2=CC=C1CC(O)CC(O)C1=C)C)C(F)(F)F,C8H9NO2,524.586,6.2405,8,408.25,2,299.27261,1,"(5<I>E</I>)-5-[(2<I>E</I>)-2-[7<I>a</I>-methyl-1-[6,6,6-trifluoro-5-hydroxy-1-methyl-5-(trifluoromethyl)hexyl]-2,3,3<I>a</I>,5,6,7-hexahydro-1<I>H</I>-inden-4-ylidene]ethylidene]-4-methylene-cyclohexa ne-1,3-diol"
"InChI=1S/C14H19N5O4/c1-9(20)22-6-11(7-23-10(2)21)3-4-19-8-17-12-5-16-14(15)18-13(12)19/h5,8,11H,3-4,6-7H2,1-2H3,(H2,15,16,18)",GGXKWVWZWMLJEH-UHFFFAOYSA-N,O(C(=O)C)CC(CCn1c2nc(ncc2nc1)N)COC(=O)C,C9H10O3,321.33701,0.1181,9,290.13,0,274.03561,0,[2-(acetoxymethyl)-4-(2-aminopurin-9-yl)butyl] acetate
"InChI=1S/C8H15N7O2S3/c9-6(15-20(12,16)17)1-2-18-3-5-4-19-8(13-5)14-7(10)11/h4H,1-3H2,(H2,9,15)(H2,12,16,17)(H4,10,11,13,14)",XUFQPHANEAPEMJ-UHFFFAOYSA-N,s1cc(nc1N=C(N)N)CSCC/C(=N/S(=O)(=O)N)/N,C9H8O2,337.453,-0.8490,7,240.75,1,380.39453,1,3-[(2-guanidinothiazol-4-yl)methylsulfanyl]-<I>N</I>'-sulfamoyl-propanamidine
"InChI=1S/C24H31N3O/c1-18(2)23-22(17-25(4)19(3)16-20-12-8-6-9-13-20)26(5)27(24(23)28)21-14-10-7-11-15-21/h6-15,18-19H,16-17H2,1-5H3",GNUXVOXXWGNPIV-UHFFFAOYSA-N,O=C1N(N(C)C(CN(C(Cc2ccccc2)C)C)=C1C(C)C)c1ccccc1,C10H11ClO3,377.53198,4.3940,7,381.75,0,53.506214,1,4-isopropyl-1-methyl-5-[[methyl-(1-methyl-2-phenyl-ethyl)amino]methyl]-2-phenyl-pyrazol-3-one
"InChI=1S/C15H26O/c1-13(2)7-5-8-14(3)9-6-10-15(4)11-12-16/h7,9,11,16H,5-6,8,10,12H2,1-4H3",CRDAMVZIKSXKFV-UHFFFAOYSA-N,OC\C=C(\CC\C=C(\CCC=C(C)C)/C)/C,C10H11N3O3S,222.37199,2.1380,7,244.63,0,86.654999,0,"(2<I>E</I>,6<I>E</I>)-3,7,11-trimethyldodeca-2,6,10-trien-1-ol"
"InChI=1S/C17H28O2S/c1-14(2)7-5-8-15(3)9-6-10-16(4)11-12-20-13-17(18)19/h7,9,11H,5-6,8,10,12-13H2,1-4H3,(H,18,19)",GNWWFEVBHYESNK-UHFFFAOYSA-N,S(CC=C(CCC=C(CCC=C(C)C)C)C)CC(O)=O,C10H12O3,296.47501,2.8910,10,296.00,1,180.07475,1,"2-[(2<I>E</I>,6<I>E</I>)-3,7,11-trimethyldodeca-2,6,10-trienyl]sulfanylacetic acid"
"InChI=1S/C12H15NO5S/c1-5(14)7-10(15)13-8(12(16)17)9(19-11(7)13)6-3-2-4-18-6/h5-7,11,14H,2-4H2,1H3,(H,16,17)",HGGAKXAHAYOLDJ-UHFFFAOYSA-N,S1C2N(C(=O)C2C(O)C)C(C(O)=O)=C1C1OCCC1,C12H7Cl3O2,285.32001,0.3290,3,224.63,0,217.1039,0,6-(1-hydroxyethyl)-7-oxo-3-tetrahydrofuran-2-yl-4-thia-1-azabicyclo[3.2.0]hept-2-ene-2-carboxylic acid
"InChI=1S/C10H5F3N4O/c11-10(12,13)18-9-3-1-7(2-4-9)16-17-8(5-14)6-15/h1-4,16H",BMZRVOVNUMQTIN-UHFFFAOYSA-N,FC(F)(F)Oc1ccc(NN=C(C#N)C#N)cc1,C13H10N2O3S,254.17099,4.1898,6,211.13,0,303.69696,1,2-[[4-(trifluoromethoxy)phenyl]hydrazono]propanedinitrile
"InChI=1S/C11H14N2O4/c12-10(14)16-6-9(7-17-11(13)15)8-4-2-1-3-5-8/h1-5,9H,6-7H2,(H2,12,14)(H2,13,15)",WKGXYQFOCVYPAC-UHFFFAOYSA-N,O(CC(COC(=O)N)c1ccccc1)C(=O)N,C13H18O2,238.243,0.3890,7,213.63,0,243.23369,1,(3-carbamoyloxy-2-phenyl-propyl) carbamate
"InChI=1S/C14H12O2/c15-14(16)10-11-6-8-13(9-7-11)12-4-2-1-3-5-12/h1-9H,10H2,(H,15,16)",QRZAKQDHEVVFRX-UHFFFAOYSA-N,OC(=O)Cc1ccc(cc1)-c1ccccc1,C13H9Cl3N2O,212.248,3.6310,3,213.38,0,103.03441,0,2-(4-phenylphenyl)acetic acid
"InChI=1S/C18H19Cl2NO4/c1-5-25-18(23)14-10(3)21-9(2)13(17(22)24-4)15(14)11-7-6-8-12(19)16(11)20/h6-8,15,21H,5H2,1-4H3",RZTAMFZIAATZDJ-UHFFFAOYSA-N,Clc1c(cccc1Cl)C1C(C(OCC)=O)=C(NC(C)=C1C(OC)=O)C,C14H12O3,384.259,4.1600,6,317.00,0,106.20249,1,"<I>O</I>5-ethyl <I>O</I>3-methyl 4-(2,3-dichlorophenyl)-2,6-dimethyl-1,4-dihydropyridine-3,5-dicarboxylate"
"InChI=1S/C15H13N3O2S/c1-20-15(19)18-14-16-12-8-7-11(9-13(12)17-14)21-10-5-3-2-4-6-10/h2-9H,1H3,(H2,16,17,18,19)",HDDSHPAODJUKPD-UHFFFAOYSA-N,S(c1cc2[nH]c(nc2cc1)NC(OC)=O)c1ccccc1,C15H12N2O,299.354,3.3500,5,270.75,0,186.64281,0,methyl <I>N</I>-(6-phenylsulfanyl-1<I>H</I>-benzimidazol-2-yl)carbamate
"InChI=1S/C16H14O3/c17-15(10-11-16(18)19)14-8-6-13(7-9-14)12-4-2-1-3-5-12/h1-9H,10-11H2,(H,18,19)",ZPAKPRAICRBAOD-UHFFFAOYSA-N,OC(=O)CCC(=O)c1ccc(cc1)-c1ccccc1,C4H4KNO4S,254.28499,3.2740,5,249.25,0,118.73888,1,4-oxo-4-(4-phenylphenyl)butanoic acid
"InChI=1S/C23H25N/c1-19(20-11-5-2-6-12-20)24-18-17-23(21-13-7-3-8-14-21)22-15-9-4-10-16-22/h2-16,19,23-24H,17-18H2,1H3",NMKSAYKQLCHXDK-UHFFFAOYSA-N,N(C(C)c1ccccc1)CCC(c1ccccc1)c1ccccc1,C7H6O3,315.45999,6.1120,7,337.25,1,17.88398,1,"3,3-diphenyl-<I>N</I>-(1-phenylethyl)propan-1-amine"
"InChI=1S/C12H16F3N/c1-3-16-9(2)7-10-5-4-6-11(8-10)12(13,14)15/h4-6,8-9,16H,3,7H2,1-2H3",DBGIVFWFUFKIQN-UHFFFAOYSA-N,FC(F)(F)c1cc(ccc1)CC(NCC)C,C7H8N4O2,231.26099,3.5498,5,205.00,0,111.31416,0,<I>N</I>-ethyl-1-[3-(trifluoromethyl)phenyl]propan-2-amine
"InChI=1S/C11H16O/c1-2-3-9-11(12)10-7-5-4-6-8-10/h4-8,11-12H,2-3,9H2,1H3",OVGORFFCBUIFIA-UHFFFAOYSA-N,OC(CCCC)c1ccccc1,C8H10N4O2,164.248,3.3440,4,173.50,0,39.806221,1,1-phenylpentan-1-ol
"InChI=1S/C20H21ClO4/c1-13(2)24-19(23)20(3,4)25-17-11-7-15(8-12-17)18(22)14-5-9-16(21)10-6-14/h5-13H,1-4H3",YMTINGFKWWXKFG-UHFFFAOYSA-N,Clc1ccc(cc1)C(=O)c1ccc(OC(C(OC(C)C)=O)(C)C)cc1,C8H14ClN5,360.83701,5.1617,7,325.13,0,57.884468,0,isopropyl 2-[4-(4-chlorobenzoyl)phenoxy]-2-methyl-propanoate