InChI,Key,smiles,Formula,Weight,logP(o/w),b_rotN,vol,lip_violation,ASA_P,Natural,ChemicalName
"InChI=1S/CH2O2/c2-1-3/h1H,(H,2,3)",BDAGIHXWWSANSR-UHFFFAOYSA-N,OC=O,C8H14ClN5,46.024998,-0.1020,0,37.88,0,138.00395,0,formic acid
"InChI=1S/C2H5NO3/c3-6-1-2(4)5/h1,3H2,(H,4,5)/p-1",NQRKYASMKDDGHT-UHFFFAOYSA-M,O(N)CC(=O)[O-],C8H8O3,90.057999,-1.1100,2,69.25,0,177.67369,1,2-aminooxyacetate
"InChI=1S/C2H5NO3/c3-6-1-2(4)5/h1,3H2,(H,4,5)",NQRKYASMKDDGHT-UHFFFAOYSA-N,O(N)CC(O)=O,C8H9NO2,91.066002,-1.2310,2,69.25,0,191.54938,1,2-aminooxyacetic acid
"InChI=1S/C12H16NO9P/c14-9(11(16)10(15)6-22-23(19,20)21)5-13-8-4-2-1-3-7(8)12(17)18/h1-4,10-11,13,15-16H,5-6H2,(H,17,18)(H2,19,20,21)",QKMBYNRMPRKVTO-UHFFFAOYSA-N,P(OCC(O)C(O)C(=O)CNc1ccccc1C(O)=O)(O)(O)=O,C9H10O3,349.23199,-1.9440,9,263.25,1,325.0679,0,"2-[(3,4-dihydroxy-2-oxo-5-phosphonooxy-pentyl)amino]benzoic acid"
"InChI=1S/C7H15NO3/c1-8(2,3)5-6(9)4-7(10)11/h6,9H,4-5H2,1-3H3",PHIQHXFUZVPYII-UHFFFAOYSA-N,OC(CC(=O)[O-])C[N+](C)(C)C,C9H8O2,161.201,-1.0130,4,140.75,0,161.32137,1,3-hydroxy-4-(trimethylammonio)butanoate
"InChI=1S/C9H15N3O11P2/c10-5-1-2-12(9(15)11-5)8-7(14)6(13)4(22-8)3-21-25(19,20)23-24(16,17)18/h1-2,4,6-8,13-14H,3H2,(H,19,20)(H2,10,11,15)(H2,16,17,18)",ZWIADYZPOWUWEW-UHFFFAOYSA-N,P(OCC1OC(N2C=CC(=NC2=O)N)C(O)C1O)(OP(O)(O)=O)(O)=O,C10H11ClO3,403.177,-4.2980,6,260.00,2,451.66913,0,"[5-(4-amino-2-oxo-pyrimidin-1-yl)-3,4-dihydroxy-tetrahydrofuran-2-yl]methyl phosphono hydrogen phosphate"
"InChI=1S/C14H26N4O11P2/c1-18(2,3)6-7-26-30(22,23)29-31(24,25)27-8-9-11(19)12(20)13(28-9)17-5-4-10(15)16-14(17)21/h4-5,9,11-13,19-20H,6-8H2,1-3H3,(H3-,15,16,21,22,23,24,25)/p+1",RZZPDXZPRHQOCG-UHFFFAOYSA-O,P(OCC1OC(N2C=CC(=NC2=O)N)C(O)C1O)(OP(OCC[N+](C)(C)C)(O)=O)(O)=O,C10H11N3O3S,489.33499,-4.2990,10,349.38,2,413.85696,1,"2-[[[5-(4-amino-2-oxo-pyrimidin-1-yl)-3,4-dihydroxy-tetrahydrofuran-2-yl]methoxy-hydroxy-phosphoryl]oxy-hydroxy-phosphoryl]oxyethyl-trimethyl-ammonium"
"InChI=1S/C15H25N3O16P2/c16-7-1-2-18(15(25)17-7)13-11(23)9(21)6(31-13)4-30-35(26,27)34-36(28,29)33-14-12(24)10(22)8(20)5(3-19)32-14/h1-2,5-6,8-14,19-24H,3-4H2,(H,26,27)(H,28,29)(H2,16,17,25)",CGPHZDRCVSLMCF-UHFFFAOYSA-N,P(OC1OC(CO)C(O)C(O)C1O)(OP(OCC1OC(N2C=CC(=NC2=O)N)C(O)C1O)(O)=O)(O)=O,C10H12O3,565.31799,-6.3830,9,374.88,3,520.46399,1,"[[5-(4-amino-2-oxo-pyrimidin-1-yl)-3,4-dihydroxy-tetrahydrofuran-2-yl]methoxy-hydroxy-phosphoryl] [3,4,5-trihydroxy-6-(hydroxymethyl)tetrahydropyran-2-yl] hydrogen phosphate"
"InChI=1S/C11H20N4O11P2/c12-2-4-23-27(19,20)26-28(21,22)24-5-6-8(16)9(17)10(25-6)15-3-1-7(13)14-11(15)18/h1,3,6,8-10,16-17H,2,4-5,12H2,(H,19,20)(H,21,22)(H2,13,14,18)",WVIMUEUQJFPNDK-UHFFFAOYSA-N,P(OCC1OC(N2C=CC(=NC2=O)N)C(O)C1O)(OP(OCCN)(O)=O)(O)=O,C12H7Cl3O2,446.246,-4.7710,9,302.63,2,423.46552,0,"[2-aminoethoxy(hydroxy)phosphoryl] [5-(4-amino-2-oxo-pyrimidin-1-yl)-3,4-dihydroxy-tetrahydrofuran-2-yl]methyl hydrogen phosphate"
"InChI=1S/C12H22O11/c13-1-3-5(15)6(16)9(19)12(22-3)23-10-4(2-14)21-11(20)8(18)7(10)17/h3-20H,1-2H2",GUBGYTABKSRVRQ-UHFFFAOYSA-N,O1C(CO)C(O)C(O)C(O)C1OC1C(O)C(O)C(OC1CO)O,C13H10N2O3S,342.297,-4.8480,4,242.38,2,311.59784,1,"2-(hydroxymethyl)-6-[4,5,6-trihydroxy-2-(hydroxymethyl)tetrahydropyran-3-yl]oxy-tetrahydropyran-3,4,5-triol"
"InChI=1S/C10H12N5O7P/c11-10-13-7-4(8(17)14-10)12-2-15(7)9-5(16)6-3(21-9)1-20-23(18,19)22-6/h2-3,5-6,9,16H,1H2,(H,18,19)(H3,11,13,14,17)",ZOOGRGPOEVQQDX-UHFFFAOYSA-N,P1(OC2C(OC(n3c4NC(=NC(=O)c4nc3)N)C2O)CO1)(O)=O,C13H18O2,345.20801,-2.3220,1,244.63,1,333.87335,0,"2-amino-9-(2,7-dihydroxy-2-oxo-4<I>a</I>,6,7,7<I>a</I>-tetrahydro-4<I>H</I>-furo[3,2-d][1,3,2]dioxaphosphinin-6-yl)-3<I>H</I>-purin-6-one"
"InChI=1S/C4H6O3/c1-3(2-5)4(6)7/h2-3H,1H3,(H,6,7)",VOKUMXABRRXHAR-UHFFFAOYSA-N,OC(=O)C(C=O)C,C13H9Cl3N2O,102.089,0.0080,2,88.25,0,149.15544,1,2-methyl-3-oxo-propanoic acid
InChI=1S/CH4/h1H4,VNWKTOKETHGBQD-UHFFFAOYSA-N,C,C14H12O3,16.042999,0.1089,0,25.38,0,0,1,methane
"InChI=1S/C11H12Cl2N2O5/c12-10(13)11(18)14-8(5-16)9(17)6-1-3-7(4-2-6)15(19)20/h1-4,8-10,16-17H,5H2,(H,14,18)",WIIZWVCIJKGZOK-UHFFFAOYSA-N,ClC(Cl)C(=O)NC(C(O)c1ccc([N+](=O)[O-])cc1)CO,C15H12N2O,323.13199,1.0964,7,241.75,0,319.04651,0,"2,2-dichloro-<I>N</I>-[2-hydroxy-1-(hydroxymethyl)-2-(4-nitrophenyl)ethyl]acetamide"
"InChI=1S/C6H5ClO2/c7-5-3-4(8)1-2-6(5)9/h1-3,8-9H",AJPXTSMULZANCB-UHFFFAOYSA-N,Clc1cc(O)ccc1O,C7H6O3,144.55699,1.9170,0,117.63,0,90.268135,0,"2-chlorobenzene-1,4-diol"
"InChI=1S/C24H38O5/c1-13(4-7-21(28)29)16-5-6-17-22-18(12-20(27)24(16,17)3)23(2)9-8-15(25)10-14(23)11-19(22)26/h13-18,20,22,25,27H,4-12H2,1-3H3,(H,28,29)",RHCPKKNRWFXMAT-UHFFFAOYSA-N,OC1CC2C(C3CCC(C(CCC(O)=O)C)C13C)C(=O)CC1CC(O)CCC12C,C7H8N4O2,406.56299,3.3310,4,331.50,0,184.92917,1,"4-(3,12-dihydroxy-10,13-dimethyl-7-oxo-1,2,3,4,5,6,8,9,11,12,14,15,16,17-tetradecahydrocyclopenta[a]phenanthren-17-yl)pentanoic acid"
"InChI=1S/C24H40O5/c1-13(4-7-21(28)29)16-5-6-17-22-18(12-20(27)24(16,17)3)23(2)9-8-15(25)10-14(23)11-19(22)26/h13-20,22,25-27H,4-12H2,1-3H3,(H,28,29)",BHQCQFFYRZLCQQ-UHFFFAOYSA-N,OC1CC2C(C3CCC(C(CCC(O)=O)C)C13C)C(O)CC1CC(O)CCC12C,C8H10N4O2,408.57898,3.8990,4,331.50,0,179.77887,1,"4-(3,7,12-trihydroxy-10,13-dimethyl-2,3,4,5,6,7,8,9,11,12,14,15,16,17-tetradecahydro-1<I>H</I>-cyclopenta[a]phenanthren-17-yl)pentanoic acid"
"InChI=1S/C27H46O/c1-18(2)7-6-8-19(3)23-11-12-24-22-10-9-20-17-21(28)13-15-26(20,4)25(22)14-16-27(23,24)5/h9,18-19,21-25,28H,6-8,10-17H2,1-5H3",HVYWMOMLDIMFJA-UHFFFAOYSA-N,OC1CC2=CCC3C4CCC(C(CCCC(C)C)C)C4(CCC3C2(CC1)C)C,C8H14ClN5,386.664,7.2730,5,359.00,1,60.600254,0,"17-(1,5-dimethylhexyl)-10,13-dimethyl-2,3,4,7,8,9,11,12,14,15,16,17-dodecahydro-1<I>H</I>-cyclopenta[a]phenanthren-3-ol"
"InChI=1S/C5H14NO/c1-6(2,3)4-5-7/h7H,4-5H2,1-3H3/q+1",OEYIOHPDSNJKLS-UHFFFAOYSA-N,OCC[N+](C)(C)C,C8H8O3,104.173,-0.8480,2,101.50,0,109.34163,1,2-hydroxyethyl(trimethyl)ammonium
"InChI=1S/C10H10O6/c1-5(9(12)13)16-8-4-6(10(14)15)2-3-7(8)11/h2-4,7-8,11H,1H2,(H,12,13)(H,14,15)",WTFXTQVDAKGDEY-UHFFFAOYSA-N,O(C(C(O)=O)=C)C1C=C(C=CC1O)C(O)=O,C8H9NO2,226.18399,0.3990,4,188.50,0,280.59201,0,"3-(1-carboxyvinyloxy)-4-hydroxy-cyclohexa-1,5-diene-1-carboxylic acid"
InChI=1S/C9H8O/c10-8-4-7-9-5-2-1-3-6-9/h1-8H,KJPRLNWUNMBNBZ-UHFFFAOYSA-N,O=CC=Cc1ccccc1,C9H10O3,132.162,2.4770,2,145.88,0,65.451988,1,(<I>E</I>)-3-phenylprop-2-enal
"InChI=1S/C9H10O/c10-8-4-7-9-5-2-1-3-6-9/h1-7,10H,8H2",OOCCDEMITAIZTP-UHFFFAOYSA-N,OCC=Cc1ccccc1,C9H8O2,134.17799,2.0280,2,145.88,0,76.551788,1,(<I>E</I>)-3-phenylprop-2-en-1-ol
"InChI=1S/C6H6O6/c7-4(8)1-3(6(11)12)2-5(9)10/h1H,2H2,(H,7,8)(H,9,10)(H,11,12)",GTZCVFVGUGFEME-UHFFFAOYSA-N,OC(=O)C(CC(O)=O)=CC(O)=O,C10H11ClO3,174.108,-0.5450,4,131.25,0,263.84113,0,"(<I>Z</I>)-prop-1-ene-1,2,3-tricarboxylic acid"
"InChI=1S/C6H6O4/c7-5(8)3-1-2-4-6(9)10/h1-4H,(H,7,8)(H,9,10)",TXXHDPDFNKHHGW-UHFFFAOYSA-N,OC(=O)\C=C\C=C\C(O)=O,C10H11N3O3S,142.11,0.5880,3,124.38,0,205.96716,1,"(2<I>E</I>,4<I>E</I>)-hexa-2,4-dienedioic acid"
"InChI=1S/C6H8O7/c7-3(8)1-6(13,5(11)12)2-4(9)10/h13H,1-2H2,(H,7,8)(H,9,10)(H,11,12)",KRKNYBCHXYNGOX-UHFFFAOYSA-N,OC(CC(O)=O)(CC(O)=O)C(O)=O,C10H12O3,192.123,-1.5260,5,136.13,0,269.91788,0,citric acid
InChI=1S/ClH/h1H/p-1,VEXZGXHMUGYJMC-UHFFFAOYSA-M,[Cl-],C12H7Cl3O2,35.452999,0.8670,0,25.38,0,129.48514,1,chloride
InChI=1S/ClH/h1H,VEXZGXHMUGYJMC-UHFFFAOYSA-N,Cl,C13H10N2O3S,36.460999,1.0320,0,25.38,0,135.19273,1,hydrogen chloride
"InChI=1S/C9H14N3O8P/c10-5-1-2-12(9(15)11-5)8-7(14)6(13)4(20-8)3-19-21(16,17)18/h1-2,4,6-8,13-14H,3H2,(H2,10,11,15)(H2,16,17,18)",IERHLVCPSMICTF-UHFFFAOYSA-N,P(OCC1OC(N2C=CC(=NC2=O)N)C(O)C1O)(O)(O)=O,C13H18O2,323.198,-3.4160,4,228.50,2,350.78436,0,"[5-(4-amino-2-oxo-pyrimidin-1-yl)-3,4-dihydroxy-tetrahydrofuran-2-yl]methyl dihydrogen phosphate"
"InChI=1S/C17H26N3O15P/c18-10-1-2-20(17(30)19-10)15-14(27)13(26)9(35-15)5-34-36(31,32)33-4-8(23)12(25)11(24)6(21)3-7(22)16(28)29/h1-2,6,8-9,11-15,21,23-27H,3-5H2,(H,28,29)(H,31,32)(H2,18,19,30)",KSWWYTQOPBWHCP-UHFFFAOYSA-N,P(OCC1OC(N2C=CC(=NC2=O)N)C(O)C1O)(OCC(O)C(O)C(O)C(O)CC(=O)C(O)=O)(O)=O,C13H9Cl3N2O,543.375,-6.1170,13,387.63,3,490.36166,1,"8-[[5-(4-amino-2-oxo-pyrimidin-1-yl)-3,4-dihydroxy-tetrahydrofuran-2-yl]methoxy-hydroxy-phosphoryl]oxy-4,5,6,7-tetrahydroxy-2-oxo-octanoic acid"
"InChI=1S/C20H31N4O16P/c1-7(26)22-12-8(27)4-20(18(32)33,39-16(12)13(29)9(28)5-25)40-41(35,36)37-6-10-14(30)15(31)17(38-10)24-3-2-11(21)23-19(24)34/h2-3,8-10,12-17,25,27-31H,4-6H2,1H3,(H,22,26)(H,32,33) (H,35,36)(H2,21,23,34)",TXCIAUNLDRJGJZ-UHFFFAOYSA-N,P(OC1(OC(C(O)C(O)CO)C(NC(=O)C)C(O)C1)C(O)=O)(OCC1OC(N2C=CC(=NC2=O)N)C(O)C1O)(O)=O,C14H12O3,614.45398,-5.5770,12,433.25,3,477.74319,0,"5-acetamido-2-[[5-(4-amino-2-oxo-pyrimidin-1-yl)-3,4-dihydroxy-tetrahydrofuran-2-yl]methoxy-hydroxy-phosphoryl]oxy-4-hydroxy-6-(1,2,3-trihydroxypropyl)tetrahydropyran-2-carboxylic acid"
"InChI=1S/C21H36N7O16P3S/c1-21(2,16(31)19(32)24-4-3-12(29)23-5-6-48)8-41-47(38,39)44-46(36,37)40-7-11-15(43-45(33,34)35)14(30)20(42-11)28-10-27-13-17(22)25-9-26-18(13)28/h9-11,14-16,20,30-31,48H,3-8H2, 1-2H3,(H,23,29)(H,24,32)(H,36,37)(H,38,39)(H2,22,25,26)",RGJOEKWQDUBAIZ-UHFFFAOYSA-N,SCCNC(=O)CCNC(=O)C(O)C(COP(OP(OCC1OC(n2c3ncnc(N)c3nc2)C(O)C1OP(O)(O)=O)(O)=O)(O)=O)(C)C,C15H12N2O,767.53998,-5.1129,20,528.63,3,667.54602,1,"[[5-(6-aminopurin-9-yl)-4-hydroxy-3-phosphonooxy-tetrahydrofuran-2-yl]methoxy-hydroxy-phosphoryl] [3-hydroxy-2,2-dimethyl-4-oxo-4-[[3-oxo-3-(2-sulfanylethylamino)propyl]amino]butyl] hydrogen phosphate"
"InChI=1S/C48H75N11O8.Co/c1-23(60)22-55-38(67)16-17-45(6)29(18-35(52)64)43-48(9)47(8,21-37(54)66)28(12-15-34(51)63)40(59-48)25(3)42-46(7,20-36(53)65)26(10-13-32(49)61)30(56-42)19-31-44(4,5)27(11-14-33( 50)62)39(57-31)24(2)41(45)58-43;/h23-24,26-29,39,43,60H",FXQKCTIZFFIAQT-UHFFFAOYSA-N,[Co].OC(CNC(=O)CCC1(C2=NC(C3(N=C(C(CCC(=O)N)C3(CC(=O)N)C)C(=C3N=C(CC4=NC(C(CCC(=O)N)C4(C)C)C2C)C(CCC(=O)N)C3(CC(=O)N)C)C)C)C1CC(=O)N)C)C,C4H4KNO4S,993.13,-4.3890,21,724.13,3,581.97742,1,"cobalt;3-[(14<I>Z</I>)-2,13,18-tris(2-amino-2-oxo-ethyl)-12,17-bis(3-amino-3-oxo-propyl)-3-[3-(2-hydroxypropylamino)-3-oxo-propyl]-3,5,8,8,13,15,18,19-octamethyl-1,2,5,6,7,10,12,17-octahydrocorrin-7-y l]propanamide"
"InChI=1S/C48H75N11O8/c1-23(60)22-55-38(67)16-17-45(6)29(18-35(52)64)43-48(9)47(8,21-37(54)66)28(12-15-34(51)63)40(59-48)25(3)42-46(7,20-36(53)65)26(10-13-32(49)61)30(56-42)19-31-44(4,5)27(11-14-33(50) 62)39(57-31)24(2)41(45)58-43/h23-24,26-29,39,43,60H,10-",SYBWFVYQKOQJDX-UHFFFAOYSA-N,OC(CNC(=O)CCC1(C2=NC(C3(N=C(C(CCC(=O)N)C3(CC(=O)N)C)C(=C3N=C(CC4=NC(C(CCC(=O)N)C4(C)C)C2C)C(CCC(=O)N)C3(CC(=O)N)C)C)C)C1CC(=O)N)C)C,C7H6O3,934.19696,-4.3890,21,718.50,3,553.20349,0,"3-[(14<I>Z</I>)-2,13,18-tris(2-amino-2-oxo-ethyl)-12,17-bis(3-amino-3-oxo-propyl)-3-[3-(2-hydroxypropylamino)-3-oxo-propyl]-3,5,8,8,13,15,18,19-octamethyl-1,2,5,6,7,10,12,17-octahydrocorrin-7-yl]propa namide"
"InChI=1S/C11H16N4O5/c16-2-6-8(18)9(19)11(20-6)15-4-14-7-5(17)1-12-3-13-10(7)15/h3-6,8-9,11,16-19H,1-2H2,(H,12,13)",YOOVTUPUBVHMPG-UHFFFAOYSA-N,O1C(CO)C(O)C(O)C1n1c2NC=NCC(O)c2nc1,C7H8N4O2,284.272,-2.5790,2,228.75,0,238.94891,1,"2-(8-hydroxy-7,8-dihydro-4<I>H</I>-imidazo[4,5-d][1,3]diazepin-3-yl)-5-(hydroxymethyl)tetrahydrofuran-3,4-diol"
"InChI=1S/C36H44N4O8/c1-17-21(5-9-33(41)42)29-14-27-19(3)22(6-10-34(43)44)30(39-27)15-28-20(4)24(8-12-36(47)48)32(40-28)16-31-23(7-11-35(45)46)18(2)26(38-31)13-25(17)37-29/h37-40H,5-16H2,1-4H3,(H,41,42 )(H,43,44)(H,45,46)(H,47,48)",NIUVHXTXUXOFEB-UHFFFAOYSA-N,OC(=O)CCc1c2[nH]c(Cc3[nH]c(Cc4[nH]c(Cc5[nH]c(C2)c(CCC(O)=O)c5C)c(C)c4CCC(O)=O)c(C)c3CCC(O)=O)c1C,C8H10N4O2,660.76801,3.4780,12,573.38,3,425.38599,0,"3-[8,12,17-tris(2-carboxyethyl)-3,7,13,18-tetramethyl-5,10,15,20,21,22,23,24-octahydroporphyrin-2-yl]propanoic acid"
"InChI=1S/C9H8O3/c10-8-4-1-7(2-5-8)3-6-9(11)12/h1-6,10H,(H,11,12)",NGSWKAQJJWESNS-UHFFFAOYSA-N,Oc1ccc(cc1)\C=C\C(O)=O,C8H14ClN5,164.15999,1.9190,2,152.88,0,152.36917,1,(<I>E</I>)-3-(4-hydroxyphenyl)prop-2-enoic acid
"InChI=1S/C30H42N7O18P3S/c1-30(2,25(42)28(43)33-10-9-20(39)32-11-12-59-21(40)8-5-17-3-6-18(38)7-4-17)14-52-58(49,50)55-57(47,48)51-13-19-24(54-56(44,45)46)23(41)29(53-19)37-16-36-22-26(31)34-15-35-27(2 2)37/h3-8,15-16,19,23-25,29,38,41-42H,9-14H2,1-2H3,(H,3",DMZOKBALNZWDKI-UHFFFAOYSA-N,S(C(=O)C=Cc1ccc(O)cc1)CCNC(=O)CCNC(=O)C(O)C(COP(OP(OCC1OC(n2c3ncnc(N)c3nc2)C(O)C1OP(O)(O)=O)(O)=O)(O)=O)(C)C,C8H8O3,913.685,-3.0349,24,665.00,3,640.57477,1,"<I>S</I>-[2-[3-[[4-[[[5-(6-aminopurin-9-yl)-4-hydroxy-3-phosphonooxy-tetrahydrofuran-2-yl]methoxy-hydroxy-phosphoryl]oxy-hydroxy-phosphoryl]oxy-2-hydroxy-3,3-dimethyl-butanoyl]amino]propanoylamino]eth yl] (<I>E</I>)-3-(4-hydroxyphenyl)prop-2-enethioate"
"InChI=1S/C8H8O4/c9-6-3-1-5(2-4-6)7(10)8(11)12/h1-4,7,9-10H,(H,11,12)",YHXHKYRQLYQUIH-UHFFFAOYSA-N,Oc1ccc(cc1)C(O)C(O)=O,C8H9NO2,168.14799,0.7020,2,142.88,0,177.02576,0,2-hydroxy-2-(4-hydroxyphenyl)acetic acid
"InChI=1S/C6H13O7PS/c1-15-3-5(8)6(9)4(7)2-13-14(10,11)12/h5-6,8-9H,2-3H2,1H3,(H2,10,11,12)",CNSJRYUMVMWNMC-UHFFFAOYSA-N,S(CC(O)C(O)C(=O)COP(O)(O)=O)C,C9H10O3,260.203,-2.3280,7,173.75,0,331.27939,1,"(3,4-dihydroxy-5-methylsulfanyl-2-oxo-pentyl) dihydrogen phosphate"
"InChI=1S/C27H46O/c1-18(2)7-6-8-19(3)23-11-12-24-22-10-9-20-17-21(28)13-15-26(20,4)25(22)14-16-27(23,24)5/h18-21,23-24,28H,6-17H2,1-5H3",QETLKNDKQOXZRP-UHFFFAOYSA-N,OC1CC2CCC=3C4CCC(C(CCCC(C)C)C)C4(CCC=3C2(CC1)C)C,C9H8O2,386.664,7.1340,5,359.00,1,48.808002,0,"17-(1,5-dimethylhexyl)-10,13-dimethyl-2,3,4,5,6,7,11,12,14,15,16,17-dodecahydro-1<I>H</I>-cyclopenta[a]phenanthren-3-ol"
"InChI=1S/C6H14N2O2/c1-4(7)2-5(8)3-6(9)10/h4-5H,2-3,7-8H2,1H3,(H,9,10)",NGDLSXMSQYUVSJ-UHFFFAOYSA-N,OC(=O)CC(N)CC(N)C,C10H11ClO3,146.19,-0.9240,4,128.50,0,182.19948,1,"3,5-diaminohexanoic acid"
"InChI=1S/C9H10O2/c1-3-7-4-5-8(10)9(6-7)11-2/h3-6,10H,1H2,2H3",YOMSJEATGXXYPX-UHFFFAOYSA-N,O(C)c1cc(ccc1O)C=C,C10H11N3O3S,150.177,2.4230,2,153.75,0,112.06273,1,2-methoxy-4-vinyl-phenol
"InChI=1S/C9H17N4O9P/c10-5-7(12-9(18)13-8(5)17)11-1-3(14)6(16)4(15)2-22-23(19,20)21/h3-4,6,14-16H,1-2,10H2,(H2,19,20,21)(H3,11,12,13,17,18)",RQRINYISXYAZKL-UHFFFAOYSA-N,P(OCC(O)C(O)C(O)CNC=1NC(=O)NC(=O)C=1N)(O)(O)=O,C10H12O3,356.228,-4.6380,8,249.13,2,414.01541,0,"[5-[(5-amino-2,4-dioxo-1<I>H</I>-pyrimidin-6-yl)amino]-2,3,4-trihydroxy-pentyl] dihydrogen phosphate"
"InChI=1S/C27H44O2/c1-17(2)7-6-8-18(3)21-9-10-22-25-23(12-14-27(21,22)5)26(4)13-11-20(28)15-19(26)16-24(25)29/h15,17-18,21-25,29H,6-14,16H2,1-5H3",IOIZWEJGGCZDOL-UHFFFAOYSA-N,OC1C2C3CCC(C(CCCC(C)C)C)C3(CCC2C2(C(C1)=CC(=O)CC2)C)C,C12H7Cl3O2,400.647,6.3860,5,365.00,1,79.021835,1,"17-(1,5-dimethylhexyl)-7-hydroxy-10,13-dimethyl-1,2,6,7,8,9,11,12,14,15,16,17-dodecahydrocyclopenta[a]phenanthren-3-one"
"InChI=1S/C3H6N2O4/c4-3(9)5-1(6)2(7)8/h1,6H,(H,7,8)(H3,4,5,9)",NWZYYCVIOKVTII-UHFFFAOYSA-N,OC(NC(=O)N)C(O)=O,C13H10N2O3S,134.091,-2.1600,3,99.38,0,271.79312,0,2-hydroxy-2-ureido-acetic acid
"InChI=1S/C5H10O4/c1-3(7)5(9)4(8)2-6/h4-6,8-9H,2H2,1H3",IGUZJYCAXLYZEE-UHFFFAOYSA-N,OC(C(O)CO)C(=O)C,C13H18O2,134.131,-1.8690,3,108.50,0,141.19533,1,"3,4,5-trihydroxypentan-2-one"
"InChI=1S/C7H6O3/c8-6-4-2-1-3-5(6)7(9)10/h1-4,8H,(H,9,10)",YGSDEFSMJLZEOE-UHFFFAOYSA-N,Oc1ccccc1C(O)=O,C13H9Cl3N2O,138.12199,1.2730,1,122.50,0,125.58334,1,2-hydroxybenzoic acid
"InChI=1S/C2H8NO3P/c3-1-2-7(4,5)6/h1-3H2,(H2,4,5,6)",QQVDJLLNRSOCEL-UHFFFAOYSA-N,P(O)(O)(=O)CCN,C14H12O3,125.064,-2.3490,2,79.75,0,211.20313,0,2-aminoethylphosphonic acid
"InChI=1S/C7H8O2/c1-5-3-2-4-6(8)7(5)9/h2-4,8-9H,1H3",PGSWEKYNAOWQDF-UHFFFAOYSA-N,Oc1c(cccc1O)C,C15H12N2O,124.139,1.5840,0,118.75,0,82.36618,1,"3-methylbenzene-1,2-diol"
"InChI=1S/C14H10O9/c15-7-2-6(3-8(16)11(7)18)14(22)23-10-4-5(13(20)21)1-9(17)12(10)19/h1-4,15-19H,(H,20,21)",COVFEVWNJUOYRL-UHFFFAOYSA-N,O(C(=O)c1cc(O)c(O)c(O)c1)c1cc(cc(O)c1O)C(O)=O,C4H4KNO4S,322.22501,1.7780,4,255.50,1,327.10721,0,"3,4-dihydroxy-5-(3,4,5-trihydroxybenzoyl)oxy-benzoic acid"
"InChI=1S/C6H11O8P/c7-1-2(8)4(10)6-5(3(1)9)13-15(11,12)14-6/h1-10H,(H,11,12)",SXHMVNXROAUURW-UHFFFAOYSA-N,P1(OC2C(O1)C(O)C(O)C(O)C2O)(O)=O,C7H6O3,242.12,-3.6020,0,151.63,0,267.56192,1,"2-hydroxy-2-oxo-3<I>a</I>,4,5,6,7,7<I>a</I>-hexahydrobenzo[d][1,3,2]dioxaphosphole-4,5,6,7-tetrol"
"InChI=1S/C6H8O5/c7-2-1-3(8)5(10)6(11)4(2)9/h2,4,6-7,9,11H,1H2",SHFQRUVRUBHHRE-UHFFFAOYSA-N,OC1C(O)C(O)CC(=O)C1=O,C7H8N4O2,160.125,-2.5830,0,120.50,0,204.63774,1,"3,4,5-trihydroxycyclohexane-1,2-dione"
"InChI=1S/C7H8O6/c1-3(6(10)11)4(7(12)13)2-5(8)9/h2H2,1H3,(H,8,9)(H,10,11)(H,12,13)",NUZLRKBHOBPTQV-UHFFFAOYSA-N,OC(=O)C(=C(C(O)=O)C)CC(O)=O,C8H10N4O2,188.13499,-0.3710,4,146.25,0,249.45396,0,"(<I>E</I>)-but-2-ene-1,2,3-tricarboxylic acid"
"InChI=1S/C12H16O7/c13-5-8-9(15)10(16)11(17)12(19-8)18-7-3-1-6(14)2-4-7/h1-4,8-17H,5H2",BJRNKVDFDLYUGJ-UHFFFAOYSA-N,O1C(CO)C(O)C(O)C(O)C1Oc1ccc(O)cc1,C8H14ClN5,272.25299,-0.9740,3,218.88,0,220.02112,1,"2-(hydroxymethyl)-6-(4-hydroxyphenoxy)tetrahydropyran-3,4,5-triol"
"InChI=1S/C13H18O7/c14-5-7-2-1-3-8(4-7)19-13-12(18)11(17)10(16)9(6-15)20-13/h1-4,9-18H,5-6H2",XYUHQWZOBKBXMT-UHFFFAOYSA-N,O1C(CO)C(O)C(O)C(O)C1Oc1cc(ccc1)CO,C8H8O3,286.28,-1.1510,4,233.63,0,222.01495,0,"2-(hydroxymethyl)-6-[3-(hydroxymethyl)phenoxy]tetrahydropyran-3,4,5-triol"
"InChI=1S/C12H17O10P/c13-6-1-3-7(4-2-6)21-12-11(16)10(15)9(14)8(22-12)5-20-23(17,18)19/h1-4,8-16H,5H2,(H2,17,18,19)",FBHYCDOVYMVLEN-UHFFFAOYSA-N,P(OCC1OC(Oc2ccc(O)cc2)C(O)C(O)C1O)(O)(O)=O,C8H9NO2,352.23199,-1.8610,5,254.38,1,312.05304,1,"[3,4,5-trihydroxy-6-(4-hydroxyphenoxy)tetrahydropyran-2-yl]methyl dihydrogen phosphate"
"InChI=1S/C6H10O6/c7-1-2-3(8)4(9)5(10)6(11)12-2/h2-3,5-8,10-11H,1H2",APIQNBNBIICCON-UHFFFAOYSA-N,O1C(CO)C(O)C(=O)C(O)C1O,C9H10O3,178.14,-2.8040,1,128.13,0,225.55664,1,"2,3,5-trihydroxy-6-(hydroxymethyl)tetrahydropyran-4-one"
"InChI=1S/C11H22NO7PS/c1-8(19-20(16,17)18)10(11(14)15)12-9(13)6-4-2-3-5-7-21/h8,10,21H,2-7H2,1H3,(H,12,13)(H,14,15)(H2,16,17,18)",JBJSVEVEEGOEBZ-UHFFFAOYSA-N,SCCCCCCC(=O)NC(C(OP(O)(O)=O)C)C(O)=O,C9H8O2,343.33701,0.2310,12,254.88,0,284.47073,0,3-phosphonooxy-2-(7-sulfanylheptanoylamino)butanoic acid
"InChI=1S/C13H26NO10PS3/c1-10(24-25(18,19)20)12(13(16)17)14-11(15)6-4-2-3-5-7-26-27-8-9-28(21,22)23/h10,12H,2-9H2,1H3,(H,14,15)(H,16,17)(H2,18,19,20)(H,21,22,23)",OBGQLHXSMIBYLN-UHFFFAOYSA-N,S(O)(=O)(=O)CCSSCCCCCCC(=O)NC(C(OP(O)(O)=O)C)C(O)=O,C10H11ClO3,483.51999,0.1450,17,331.75,1,409.85361,1,3-phosphonooxy-2-[7-(2-sulfoethyldisulfanyl)heptanoylamino]butanoic acid
"InChI=1S/C24H34N8O12/c1-9(42-21(39)10(25)2-5-14(33)34)18(43-22(40)11(26)3-6-15(35)36)13-8-29-19-17(30-13)20(32-24(28)31-19)44-23(41)12(27)4-7-16(37)38/h8-12,18,30H,2-7,25-27H2,1H3,(H,33,34)(H,35,36)(H ,37,38)(H3,28,29,31,32)",XPPZDBCBKYATPW-UHFFFAOYSA-N,O(C(=O)C(N)CCC(O)=O)c1nc(nc2NC=C(Nc12)C(OC(=O)C(N)CCC(O)=O)C(OC(=O)C(N)CCC(O)=O)C)N,C10H11N3O3S,626.58002,-3.1243,20,499.50,3,574.95892,0,"4-amino-5-[[2-amino-6-[1,2-bis[(2-amino-4-carboxy-butanoyl)oxy]propyl]-5,8-dihydropteridin-4-yl]oxy]-5-oxo-pentanoic acid"
"InChI=1S/C25H36N8O12/c1-10(43-22(40)11(26)3-6-15(34)35)19(44-23(41)12(27)4-7-16(36)37)14-9-30-20-18(33(14)2)21(32-25(29)31-20)45-24(42)13(28)5-8-17(38)39/h9-13,19H,3-8,26-28H2,1-2H3,(H,34,35)(H,36,37) (H,38,39)(H3,29,30,31,32)",SRBIKUAVFZRKSG-UHFFFAOYSA-N,O(C(=O)C(N)CCC(O)=O)c1nc(nc2NC=C(N(c12)C)C(OC(=O)C(N)CCC(O)=O)C(OC(=O)C(N)CCC(O)=O)C)N,C10H12O3,640.60699,-2.7913,20,510.63,3,588.00934,1,"4-amino-5-[[2-amino-6-[1,2-bis[(2-amino-4-carboxy-butanoyl)oxy]propyl]-5-methyl-8<I>H</I>-pteridin-4-yl]oxy]-5-oxo-pentanoic acid"
"InChI=1S/C7H8O5/c8-5(7(11)12)3-1-2-4-6(9)10/h1,3H,2,4H2,(H,9,10)(H,11,12)",HYVSZVZMTYIHKF-UHFFFAOYSA-N,OC(=O)CC\C=C\C(=O)C(O)=O,C12H7Cl3O2,172.136,-0.3250,5,143.88,0,246.2448,1,(<I>E</I>)-2-oxohept-3-enedioic acid
"InChI=1S/C8H6O4/c9-6-3-1-5(2-4-6)7(10)8(11)12/h1-4,9H,(H,11,12)",KXFJZKUFXHWWAJ-UHFFFAOYSA-N,Oc1ccc(cc1)C(=O)C(O)=O,C13H10N2O3S,166.13199,0.8300,2,142.88,0,183.4832,0,2-(4-hydroxyphenyl)-2-oxo-acetic acid
"InChI=1S/C8H18/c1-3-5-7-8-6-4-2/h3-8H2,1-2H3",TVMXDCGIABBOFY-UHFFFAOYSA-N,C(CCCC)CCC,C13H18O2,114.23199,5.3352,5,133.13,0,0,1,octane
"InChI=1S/C6H4Cl4/c7-3-1-4(8)6(10)2-5(3)9/h1-3,6H",HKAJKOBDBFGGIU-UHFFFAOYSA-N,ClC1C=C(Cl)C(Cl)C=C1Cl,C13H9Cl3N2O,217.90999,3.9180,0,148.38,0,143.14571,0,"1,3,4,6-tetrachlorocyclohexa-1,4-diene"