InChI,Key,smiles,Formula,Weight,logP(o/w),b_rotN,vol,lip_violation,ASA_P,Natural,ChemicalName
InChI=1S/C6H12O6/c7-1-2(8)4(10)6(12)5(11)3(1)9/h1-12H,CDAISMWEOUEBRE-UHFFFAOYSA-N,OC1C(O)C(O)C(O)C(O)C1O,C8H9NO2,180.15599,-3.5000,0,119.38,1,234.5507,0,"cyclohexane-1,2,3,4,5,6-hexol"
"InChI=1S/C3H8O3S2/c1-7-2-3-8(4,5)6/h2-3H2,1H3,(H,4,5,6)",FGMRHOCVEPGURB-UHFFFAOYSA-N,S(CCS(O)(=O)=O)C,C9H10O3,156.226,-0.2970,3,102.00,0,182.54268,1,2-methylsulfanylethanesulfonic acid
"InChI=1S/C12H16NO9P/c14-9-8(5-21-23(18,19)20)22-11(10(9)15)13-7-4-2-1-3-6(7)12(16)17/h1-4,8-11,13-15H,5H2,(H,16,17)(H2,18,19,20)",PMFMJXPRNJUYMB-UHFFFAOYSA-N,P(OCC1OC(Nc2ccccc2C(O)=O)C(O)C1O)(O)(O)=O,C9H8O2,349.23199,-1.6140,6,257.00,1,332.33557,0,"2-[[3,4-dihydroxy-5-(phosphonooxymethyl)tetrahydrofuran-2-yl]amino]benzoic acid"
"InChI=1S/C12H24N2O3/c13-9-5-1-3-7-11(15)14-10-6-2-4-8-12(16)17/h1-10,13H2,(H,14,15)(H,16,17)",IWENLYKHSZCPRD-UHFFFAOYSA-N,OC(=O)CCCCCNC(=O)CCCCCN,C10H11ClO3,244.33499,0.8340,12,228.88,0,216.93216,1,6-(6-aminohexanoylamino)hexanoic acid
"InChI=1S/C13H16N2O2/c1-9(16)14-6-5-10-8-15-13-4-3-11(17-2)7-12(10)13/h3-4,7-8,15H,5-6H2,1-2H3,(H,14,16)",DRLFMBDRBRZALE-UHFFFAOYSA-N,O(C)c1cc2c([nH]cc2CCNC(=O)C)cc1,C10H11N3O3S,232.28299,1.6130,5,225.13,0,149.81509,1,<I>N</I>-[2-(5-methoxy-1<I>H</I>-indol-3-yl)ethyl]acetamide
"InChI=1S/C8H16N2O5/c1-3(12)10-5-7(14)6(13)4(2-11)15-8(5)9/h4-8,11,13-14H,2,9H2,1H3,(H,10,12)",MCGXOCXFFNKASF-UHFFFAOYSA-N,O1C(CO)C(O)C(O)C(NC(=O)C)C1N,C10H12O3,220.22499,-3.2070,3,166.25,1,254.69687,0,"<I>N</I>-[2-amino-4,5-dihydroxy-6-(hydroxymethyl)tetrahydropyran-3-yl]acetamide"
"InChI=1S/C8H16NO9P/c1-3(10)9-5-7(12)6(11)4(18-8(5)13)2-17-19(14,15)16/h4-8,11-13H,2H2,1H3,(H,9,10)(H2,14,15,16)",BRGMHAYQAZFZDJ-UHFFFAOYSA-N,P(OCC1OC(O)C(NC(=O)C)C(O)C1O)(O)(O)=O,C12H7Cl3O2,301.18799,-3.8720,5,198.75,1,325.06143,1,"(5-acetamido-3,4,6-trihydroxy-tetrahydropyran-2-yl)methyl dihydrogen phosphate"
"InChI=1S/C8H15NO6/c1-3(11)9-5-7(13)6(12)4(2-10)15-8(5)14/h4-8,10,12-14H,2H2,1H3,(H,9,11)",OVRNDRQMDRJTHS-UHFFFAOYSA-N,O1C(CO)C(O)C(O)C(NC(=O)C)C1O,C13H10N2O3S,221.209,-2.9850,3,165.38,0,229.12392,0,"<I>N</I>-[2,4,5-trihydroxy-6-(hydroxymethyl)tetrahydropyran-3-yl]acetamide"
"InChI=1S/C8H16NO9P/c1-3(11)9-5-7(13)6(12)4(2-10)17-8(5)18-19(14,15)16/h4-8,10,12-13H,2H2,1H3,(H,9,11)(H2,14,15,16)",FZLJPEPAYPUMMR-UHFFFAOYSA-N,P(OC1OC(CO)C(O)C(O)C1NC(=O)C)(O)(O)=O,C13H18O2,301.18799,-3.8720,5,200.38,1,317.90567,1,"[3-acetamido-4,5-dihydroxy-6-(hydroxymethyl)tetrahydropyran-2-yl] dihydrogen phosphate"
"InChI=1S/C7H12NO8P/c1-4(9)8-5(7(11)12)2-3-6(10)16-17(13,14)15/h5H,2-3H2,1H3,(H,8,9)(H,11,12)(H2,13,14,15)",FCVIHFVSXHOPSW-UHFFFAOYSA-N,P(OC(=O)CCC(NC(=O)C)C(O)=O)(O)(O)=O,C13H9Cl3N2O,269.146,-2.0310,8,185.88,0,286.79123,1,2-acetamido-5-oxo-5-phosphonooxy-pentanoic acid
"InChI=1S/C6H12N2O3/c1-4(9)8-3-2-5(7)6(10)11/h5H,2-3,7H2,1H3,(H,8,9)(H,10,11)",YLZRFVZUZIJABA-UHFFFAOYSA-N,OC(=O)C(N)CCNC(=O)C,C14H12O3,160.173,-3.7037,5,137.25,0,206.86092,0,4-acetamido-2-amino-butanoic acid
"InChI=1S/C12H14N2O2/c1-8(15)13-5-4-9-7-14-12-3-2-10(16)6-11(9)12/h2-3,6-7,14,16H,4-5H2,1H3,(H,13,15)",MVAWJSIDNICKHF-UHFFFAOYSA-N,Oc1cc2c([nH]cc2CCNC(=O)C)cc1,C15H12N2O,218.256,1.3490,4,207.13,0,171.16914,1,<I>N</I>-[2-(5-hydroxy-1<I>H</I>-indol-3-yl)ethyl]acetamide
"InChI=1S/C8H9NO/c1-7(10)9-8-5-3-2-4-6-8/h2-6H,1H3,(H,9,10)",FZERHIULMFGESH-UHFFFAOYSA-N,O=C(Nc1ccccc1)C,C4H4KNO4S,135.166,1.1970,2,139.50,0,54.150826,0,<I>N</I>-phenylacetamide
"InChI=1S/C7H11NO4/c1-5(10)8-6(7(11)12)3-2-4-9/h4,6H,2-3H2,1H3,(H,8,10)(H,11,12)",BCPSFKBPHHBDAI-UHFFFAOYSA-N,OC(=O)C(NC(=O)C)CCC=O,C7H6O3,173.168,-0.5460,6,148.50,0,194.54262,1,2-acetamido-5-oxo-pentanoic acid
"InChI=1S/C11H19NO9/c1-4(14)12-7-5(15)2-11(20,10(18)19)21-9(7)8(17)6(16)3-13/h5-9,13,15-17,20H,2-3H2,1H3,(H,12,14)(H,18,19)",SQVRNKJHWKZAKO-UHFFFAOYSA-N,O1C(C(O)C(O)CO)C(NC(=O)C)C(O)CC1(O)C(O)=O,C7H8N4O2,309.271,-3.0080,6,222.50,1,293.08859,1,"5-acetamido-2,4-dihydroxy-6-(1,2,3-trihydroxypropyl)tetrahydropyran-2-carboxylic acid"
"InChI=1S/C7H14N2O3/c1-5(10)9-6(7(11)12)3-2-4-8/h6H,2-4,8H2,1H3,(H,9,10)(H,11,12)",JRLGPAXAGHMNOL-UHFFFAOYSA-N,OC(=O)C(NC(=O)C)CCCN,C8H10N4O2,174.2,-0.8630,6,150.50,0,210.11562,0,2-acetamido-5-amino-pentanoic acid
"InChI=1S/C3H6N2O2/c4-2-5-1-3(6)7/h2H,1H2,(H2,4,5)(H,6,7)",LLKCTZRWBHOKFF-UHFFFAOYSA-N,OC(=O)CNC=N,C8H14ClN5,102.09299,-0.5680,3,86.25,0,209.66992,1,2-methanimidamidoacetic acid
"InChI=1S/C6H10N2O4/c7-3-8-4(6(11)12)1-2-5(9)10/h3-4H,1-2H2,(H2,7,8)(H,9,10)(H,11,12)",NRXIKWMTVXPVEF-UHFFFAOYSA-N,OC(=O)C(\N=C\N)CCC(O)=O,C8H8O3,174.15599,-0.7540,5,142.00,0,281.04861,0,2-[(E)-aminomethyleneamino]pentanedioic acid
"InChI=1S/C11H12N2O4/c12-8(11(16)17)5-10(15)7-3-1-2-4-9(7)13-6-14/h1-4,6,8H,5,12H2,(H,13,14)(H,16,17)",BYHJHXPTQMMKCA-UHFFFAOYSA-N,OC(=O)C(N)CC(=O)c1ccccc1NC=O,C8H9NO2,236.22699,-2.7017,6,206.88,0,242.21866,1,2-amino-4-(2-formamidophenyl)-4-oxo-butanoic acid
"InChI=1S/C6H11NO3S/c1-11-3-2-5(6(9)10)7-4-8/h4-5H,2-3H2,1H3,(H,7,8)(H,9,10)",PYUSHNKNPOHWEZ-UHFFFAOYSA-N,S(CCC(NC=O)C(O)=O)C,C9H10O3,177.224,0.1420,6,145.00,0,229.99356,1,2-formamido-4-methylsulfanyl-butanoic acid
"InChI=1S/C6H11N3/c1-7-3-2-6-4-8-5-9-6/h4-5,7H,2-3H2,1H3,(H,8,9)",PHSPJQZRQAJPPF-UHFFFAOYSA-N,[nH]1cncc1CCNC,C9H8O2,125.175,-0.6940,3,125.63,0,95.671646,0,2-(1<I>H</I>-imidazol-5-yl)-<I>N</I>-methyl-ethanamine
"InChI=1S/C9H13NO/c1-10-7-9(11)8-5-3-2-4-6-8/h2-6,9-11H,7H2,1H3",ZCTYHONEGJTYQV-UHFFFAOYSA-N,OC(CNC)c1ccccc1,C10H11ClO3,151.209,1.1140,3,154.25,0,90.963692,1,2-(methylamino)-1-phenyl-ethanol
"InChI=1S/C12H14N2O2/c1-13-11(12(15)16)6-8-7-14-10-5-3-2-4-9(8)10/h2-5,7,11,13-14H,6H2,1H3,(H,15,16)",CZCIKBSVHDNIDH-UHFFFAOYSA-N,OC(=O)C(NC)Cc1c2c([nH]c1)cccc2,C10H11N3O3S,218.256,1.6020,4,205.75,0,167.25027,0,3-(1H-indol-3-yl)-2-(methylamino)propanoic acid
"InChI=1S/C11H15NO8/c13-7(11(19)20)3-1-2-6(10(17)18)12-8(14)4-5-9(15)16/h6H,1-5H2,(H,12,14)(H,15,16)(H,17,18)(H,19,20)",SDVXSCSNVVZWDD-UHFFFAOYSA-N,OC(=O)C(NC(=O)CCC(O)=O)CCCC(=O)C(O)=O,C10H12O3,289.23999,-1.2440,11,230.50,0,340.63193,1,2-(3-carboxypropanoylamino)-6-oxo-heptanedioic acid
"InChI=1S/C12H28N4O/c1-12(17)16-11-5-10-15-8-3-2-7-14-9-4-6-13/h14-15H,2-11,13H2,1H3,(H,16,17)",GUNURVWAJRRUAV-UHFFFAOYSA-N,O=C(NCCCNCCCCNCCCN)C,C12H7Cl3O2,244.383,-0.3870,13,240.63,0,169.78986,1,<I>N</I>-[3-[4-(3-aminopropylamino)butylamino]propyl]acetamide
"InChI=1S/C6H11N5/c1-11-3-10-6-4(5(11)7)8-2-9-6/h2,5,10H,3,7H2,1H3,(H,8,9)",QTASQVUUUSBBEA-UHFFFAOYSA-N,[nH]1c2c(nc1)NCN(C)C2N,C13H10N2O3S,153.189,-1.4230,0,136.25,0,174.4826,0,"1-methyl-2,3,6,7-tetrahydropurin-6-amine"
"InChI=1S/C9H13NO7/c11-6(2-4-8(14)15)10-5(9(16)17)1-3-7(12)13/h5H,1-4H2,(H,10,11)(H,12,13)(H,14,15)(H,16,17)",JCNBNOQGFSXOML-UHFFFAOYSA-N,OC(=O)C(NC(=O)CCC(O)=O)CCC(O)=O,C13H18O2,247.20299,-1.2410,9,193.75,0,289.97275,1,2-(3-carboxypropanoylamino)pentanedioic acid
"InChI=1S/C9H15NO6/c11-5-1-2-6(9(15)16)10-7(12)3-4-8(13)14/h6,11H,1-5H2,(H,10,12)(H,13,14)(H,15,16)",AOJXACUJCYODCV-UHFFFAOYSA-N,OC(=O)C(NC(=O)CCC(O)=O)CCCO,C13H9Cl3N2O,233.22,-1.0860,9,189.50,0,276.25406,0,2-(3-carboxypropanoylamino)-5-hydroxy-pentanoic acid
"InChI=1S/C9H16N2O5/c10-5-1-2-6(9(15)16)11-7(12)3-4-8(13)14/h6H,1-5,10H2,(H,11,12)(H,13,14)(H,15,16)",VWXQFHJBQHTHMK-UHFFFAOYSA-N,OC(=O)C(NC(=O)CCC(O)=O)CCCN,C14H12O3,232.23599,-1.3080,9,192.50,0,290.76196,1,5-amino-2-(3-carboxypropanoylamino)pentanoic acid
"InChI=1S/C5H11N3O/c1-8-4(6)2-3-7-5(8)9/h4H,2-3,6H2,1H3,(H,7,9)",OPGAQBPMPKLKFT-UHFFFAOYSA-N,O=C1NCCC(N)N1C,C15H12N2O,129.16299,-1.2440,0,116.50,0,151.97531,1,6-amino-1-methyl-hexahydropyrimidin-2-one
"InChI=1S/C6H12N2O3/c1-8-5(9)3-2-4(7)6(10)11/h4H,2-3,7H2,1H3,(H,8,9)(H,10,11)",ONXPDKGXOOORHB-UHFFFAOYSA-N,OC(=O)C(N)CCC(=O)NC,C4H4KNO4S,160.173,-3.7417,5,138.38,0,243.23404,0,2-amino-5-(methylamino)-5-oxo-pentanoic acid
InChI=1S/Na/q+1,FKNQFGJONOIPTF-UHFFFAOYSA-N,[Na+],C7H6O3,22.99,-0.0620,0,54.63,0,172.96478,1,sodium(1+)
"InChI=1S/C21H27N7O14P2/c22-17-12-19(25-7-24-17)28(8-26-12)21-16(32)14(30)11(41-21)6-39-44(36,37)42-43(34,35)38-5-10-13(29)15(31)20(40-10)27-3-1-2-9(4-27)18(23)33/h1-4,7-8,10-11,13-16,20-21,29-32H,5-6H 2,(H5-,22,23,24,25,33,34,35,36,37)",BAWFJGJZGIEFAR-UHFFFAOYSA-N,P(OCC1OC([n+]2cc(ccc2)C(=O)N)C(O)C1O)(OP(OCC1OC(n2c3ncnc(N)c3nc2)C(O)C1O)(O)=O)(=O)[O-],C7H8N4O2,663.42999,-4.7449,11,479.75,3,529.09485,0,"[[5-(6-aminopurin-9-yl)-3,4-dihydroxy-tetrahydrofuran-2-yl]methoxy-hydroxy-phosphoryl] [5-(3-carbamoylpyridin-1-ium-1-yl)-3,4-dihydroxy-tetrahydrofuran-2-yl]methyl phosphate"
"InChI=1S/C21H27N7O14P2/c22-17-12-19(25-7-24-17)28(8-26-12)21-16(32)14(30)11(41-21)6-39-44(36,37)42-43(34,35)38-5-10-13(29)15(31)20(40-10)27-3-1-2-9(4-27)18(23)33/h1-4,7-8,10-11,13-16,20-21,29-32H,5-6H 2,(H5-,22,23,24,25,33,34,35,36,37)/p+1",BAWFJGJZGIEFAR-UHFFFAOYSA-O,P(OCC1OC(n2c3ncnc(N)c3nc2)C(O)C1O)(OP(OCC1OC([n+]2cc(ccc2)C(=O)N)C(O)C1O)(O)=O)(O)=O,C8H10N4O2,664.43799,-4.6949,11,479.75,3,543.54834,1,"[[5-(6-aminopurin-9-yl)-3,4-dihydroxy-tetrahydrofuran-2-yl]methoxy-hydroxy-phosphoryl] [5-(3-carbamoylpyridin-1-ium-1-yl)-3,4-dihydroxy-tetrahydrofuran-2-yl]methyl hydrogen phosphate"
"InChI=1S/C15H23N5O13P2/c16-13-9-14(18-4-17-13)20(5-19-9)15-12(24)11(23)8(32-15)3-31-35(27,28)33-34(25,26)30-2-7-10(22)6(21)1-29-7/h4-8,10-12,15,21-24H,1-3H2,(H,25,26)(H,27,28)(H2,16,17,18)",PVLZDTFICNXVOP-UHFFFAOYSA-N,P(OCC1OC(n2c3ncnc(N)c3nc2)C(O)C1O)(OP(OCC1OCC(O)C1O)(O)=O)(O)=O,C8H14ClN5,543.31897,-5.1039,9,374.13,3,457.65588,1,"[[5-(6-aminopurin-9-yl)-3,4-dihydroxy-tetrahydrofuran-2-yl]methoxy-hydroxy-phosphoryl] (3,4-dihydroxytetrahydrofuran-2-yl)methyl hydrogen phosphate"
"InChI=1S/C21H29N7O14P2/c22-17-12-19(25-7-24-17)28(8-26-12)21-16(32)14(30)11(41-21)6-39-44(36,37)42-43(34,35)38-5-10-13(29)15(31)20(40-10)27-3-1-2-9(4-27)18(23)33/h1,3-4,7-8,10-11,13-16,20-21,29-32H,2, 5-6H2,(H2,23,33)(H,34,35)(H,36,37)(H2,22,24,25)",BOPGDPNILDQYTO-UHFFFAOYSA-N,P(OCC1OC(N2C=C(CC=C2)C(=O)N)C(O)C1O)(OP(OCC1OC(n2c3ncnc(N)c3nc2)C(O)C1O)(O)=O)(O)=O,C8H8O3,665.44598,-6.0099,11,480.75,3,543.43994,0,"[[5-(6-aminopurin-9-yl)-3,4-dihydroxy-tetrahydrofuran-2-yl]methoxy-hydroxy-phosphoryl] [5-(3-carbamoyl-4<I>H</I>-pyridin-1-yl)-3,4-dihydroxy-tetrahydrofuran-2-yl]methyl hydrogen phosphate"
"InChI=1S/C21H28N7O17P3/c22-17-12-19(25-7-24-17)28(8-26-12)21-16(44-46(33,34)35)14(30)11(43-21)6-41-48(38,39)45-47(36,37)40-5-10-13(29)15(31)20(42-10)27-3-1-2-9(4-27)18(23)32/h1-4,7-8,10-11,13-16,20-21 ,29-31H,5-6H2,(H7-,22,23,24,25,32,33,34,35,36,37,38,39)",XJLXINKUBYWONI-UHFFFAOYSA-O,P(OCC1OC(n2c3ncnc(N)c3nc2)C(OP(O)(O)=O)C1O)(OP(OCC1OC([n+]2cc(ccc2)C(=O)N)C(O)C1O)(O)=O)(O)=O,C8H9NO2,744.41699,-5.5819,13,512.88,3,698.4519,1,"[[5-(6-aminopurin-9-yl)-3-hydroxy-4-phosphonooxy-tetrahydrofuran-2-yl]methoxy-hydroxy-phosphoryl] [5-(3-carbamoylpyridin-1-ium-1-yl)-3,4-dihydroxy-tetrahydrofuran-2-yl]methyl hydrogen phosphate"
"InChI=1S/C21H30N7O17P3/c22-17-12-19(25-7-24-17)28(8-26-12)21-16(44-46(33,34)35)14(30)11(43-21)6-41-48(38,39)45-47(36,37)40-5-10-13(29)15(31)20(42-10)27-3-1-2-9(4-27)18(23)32/h1,3-4,7-8,10-11,13-16,20- 21,29-31H,2,5-6H2,(H2,23,32)(H,36,37)(H,38,39)(H2,22,24",ACFIXJIJDZMPPO-UHFFFAOYSA-N,P(OCC1OC(N2C=C(CC=C2)C(=O)N)C(O)C1O)(OP(OCC1OC(n2c3ncnc(N)c3nc2)C(OP(O)(O)=O)C1O)(O)=O)(O)=O,C9H10O3,745.42499,-6.8969,13,513.00,3,633.01135,0,"[[5-(6-aminopurin-9-yl)-3-hydroxy-4-phosphonooxy-tetrahydrofuran-2-yl]methoxy-hydroxy-phosphoryl] [5-(3-carbamoyl-4<I>H</I>-pyridin-1-yl)-3,4-dihydroxy-tetrahydrofuran-2-yl]methyl hydrogen phosphate"
InChI=1S/C10H8/c1-2-6-10-8-4-3-7-9(10)5-1/h1-8H,UFWIBTONFRDIAS-UHFFFAOYSA-N,c12c(cccc1)cccc2,C9H8O2,128.174,3.1280,0,142.13,0,0,1,naphthalene
"InChI=1S/C15H12O5/c16-9-3-1-8(2-4-9)13-7-12(19)15-11(18)5-10(17)6-14(15)20-13/h1-6,13,16-18H,7H2",FTVWIRXFELQLPI-UHFFFAOYSA-N,O1c2c(C(=O)CC1c1ccc(O)cc1)c(O)cc(O)c2,C10H11ClO3,272.25598,2.3800,1,239.50,0,168.30286,1,"5,7-dihydroxy-2-(4-hydroxyphenyl)chroman-4-one"
"InChI=1S/H4NO/c1-2/h2H,1H3/q+1",RBLWMQWAHONKNC-UHFFFAOYSA-N,O[NH3+],C10H11N3O3S,34.037998,-1.1790,0,22.13,0,126.63073,0,hydroxyammonium
InChI=1S/Ni/q+2,VEQPNABPJHWNSG-UHFFFAOYSA-N,[Ni+2],C10H12O3,58.693001,-0.0620,0,21.38,0,120.76283,1,nickel(2+)
InChI=1S/Ni,PXHVJJICTQNCMI-UHFFFAOYSA-N,[Ni],C12H7Cl3O2,58.693001,-0.0620,0,21.38,0,0,0,nickel
"InChI=1S/C6H6N2O/c7-6(9)5-2-1-3-8-4-5/h1-4H,(H2,7,9)",DFPAKSUCGFBDDF-UHFFFAOYSA-N,O=C(N)c1cccnc1,C13H10N2O3S,122.127,-0.3840,1,117.38,0,126.17188,1,pyridine-3-carboxamide
"InChI=1S/C6H5NO2/c8-6(9)5-2-1-3-7-4-5/h1-4H,(H,8,9)/p-1",PVNIIMVLHYAWGP-UHFFFAOYSA-M,O=C([O-])c1cccnc1,C13H18O2,122.103,0.4710,1,115.38,0,112.54531,1,pyridine-3-carboxylate
"InChI=1S/C6H5NO2/c8-6(9)5-2-1-3-7-4-5/h1-4H,(H,8,9)",PVNIIMVLHYAWGP-UHFFFAOYSA-N,OC(=O)c1cccnc1,C13H9Cl3N2O,123.111,0.3500,1,115.38,0,116.44818,0,nicotinic acid
"InChI=1S/C11H15N2O8P/c12-10(16)6-2-1-3-13(4-6)11-9(15)8(14)7(21-11)5-20-22(17,18)19/h1-4,7-9,11,14-15H,5H2,(H3-,12,16,17,18,19)/p+1",DAYLJWODMCOQEW-UHFFFAOYSA-O,P(OCC1OC([n+]2cc(ccc2)C(=O)N)C(O)C1O)(O)(O)=O,C14H12O3,335.229,-2.3410,5,246.50,1,355.03323,1,"[5-(3-carbamoylpyridin-1-ium-1-yl)-3,4-dihydroxy-tetrahydrofuran-2-yl]methyl dihydrogen phosphate"
"InChI=1S/C11H14N2O5/c12-10(17)6-2-1-3-13(4-6)11-9(16)8(15)7(5-14)18-11/h1-4,7-9,11,14-16H,5H2,(H-,12,17)/p+1",JLEBZPBDRKPWTD-UHFFFAOYSA-O,O1C(CO)C(O)C(O)C1[n+]1cc(ccc1)C(=O)N,C15H12N2O,255.25,-1.4540,3,210.63,0,252.28397,0,"1-[3,4-dihydroxy-5-(hydroxymethyl)tetrahydrofuran-2-yl]pyridin-1-ium-3-carboxamide"
"InChI=1S/C11H14NO9P/c13-8-7(5-20-22(17,18)19)21-10(9(8)14)12-3-1-2-6(4-12)11(15)16/h1-4,7-10,13-14H,5H2,(H2-,15,16,17,18,19)/p+1",JOUIQRNQJGXQDC-UHFFFAOYSA-O,P(OCC1OC([n+]2cc(ccc2)C(O)=O)C(O)C1O)(O)(O)=O,C4H4KNO4S,336.21298,-1.6070,5,244.38,0,351.20572,1,"1-[3,4-dihydroxy-5-(phosphonooxymethyl)tetrahydrofuran-2-yl]pyridin-1-ium-3-carboxylic acid"
"InChI=1S/C10H14N2/c1-12-7-3-5-10(12)9-4-2-6-11-8-9/h2,4,6,8,10H,3,5,7H2,1H3",SNICXCGAKADSCV-UHFFFAOYSA-N,n1cc(ccc1)C1N(CCC1)C,C7H6O3,162.23599,1.3750,1,168.25,0,50.750904,1,3-(1-methylpyrrolidin-2-yl)pyridine
InChI=1S/NO3/c2-1(3)4/q-1,NHNBFGGVMKEFGY-UHFFFAOYSA-N,O=[N+]([O-])[O-],C7H8N4O2,62.003998,0.3600,0,37.75,0,159.67262,0,nitrate
"InChI=1S/HNO3/c2-1(3)4/h(H,2,3,4)",GRYLNZFGIOXLOG-UHFFFAOYSA-N,O[N+](=O)[O-],C8H10N4O2,63.011997,-0.1140,0,37.75,0,167.70535,1,nitric acid
InChI=1S/HNO/c1-2/h1H,ODUCDPQEXGNKDN-UHFFFAOYSA-N,O=N,C8H14ClN5,31.014,0.2940,0,22.13,0,80.991707,0,nitroxyl
"InChI=1S/HNO2/c2-1-3/h(H,2,3)/p-1",IOVCWXUNBOPUCH-UHFFFAOYSA-M,O=N[O-],C8H8O3,46.004997,0.4440,0,29.75,0,103.11141,1,nitrite
InChI=1S/N2/c1-2,IJGRMHOSHXDMSA-UHFFFAOYSA-N,N#N,C8H9NO2,28.014,-0.3980,0,24.63,0,0,1,molecular nitrogen
InChI=1S/N2O/c1-2-3,GQPLMRYTRLFLPF-UHFFFAOYSA-N,O=[N+]=[N-],C9H10O3,44.013,-0.8730,0,31.50,0,82.637527,0,nitrous oxide
"InChI=1S/C8H11N/c1-9(2)8-6-4-3-5-7-8/h3-7H,1-2H3",JLTDJTHDQAWBAV-UHFFFAOYSA-N,N(C)(C)c1ccccc1,C9H8O2,121.183,1.8210,1,136.00,0,39.298275,1,"<I>N</I>,<I>N</I>-dimethylaniline"
"InChI=1S/C8H11NO/c1-9(2,10)8-6-4-3-5-7-8/h3-7H,1-2H3",LKQUDAOAMBKKQW-UHFFFAOYSA-N,[O-][N+](C)(C)c1ccccc1,C10H11ClO3,137.18199,1.6730,1,133.00,0,62.002342,0,"<I>N</I>,<I>N</I>-dimethylbenzeneamine oxide"
"InChI=1S/C8H11NO3/c9-4-8(12)5-1-2-6(10)7(11)3-5/h1-3,8,10-12H,4,9H2",SFLSHLFXELFNJZ-UHFFFAOYSA-N,Oc1cc(ccc1O)C(O)CN,C10H11N3O3S,169.17999,0.0080,2,146.63,0,198.90681,1,"4-(2-amino-1-hydroxy-ethyl)benzene-1,2-diol"
"InChI=1S/C5H10O4/c6-1-4-5(8)3(7)2-9-4/h3-8H,1-2H2",KZVAAIRBJJYZOW-UHFFFAOYSA-N,O1CC(O)C(O)C1CO,C10H11ClO3,134.131,-1.8630,1,104.50,0,173.77141,1,"2-(hydroxymethyl)tetrahydrofuran-3,4-diol"
"InChI=1S/C4H10NO6P/c5-3(4(6)7)1-2-11-12(8,9)10/h3H,1-2,5H2,(H,6,7)(H2,8,9,10)",FXDNYOANAXWZHG-UHFFFAOYSA-N,P(OCCC(N)C(O)=O)(O)(O)=O,C10H11N3O3S,199.099,-4.5377,5,131.13,0,281.22809,0,2-amino-4-phosphonooxy-butanoic acid
"InChI=1S/C8H13NO6/c9-5(8(13)14)3-4-15-7(12)2-1-6(10)11/h5H,1-4,9H2,(H,10,11)(H,13,14)",GNISQJGXJIDKDJ-UHFFFAOYSA-N,O(C(=O)CCC(O)=O)CCC(N)C(O)=O,C10H12O3,219.19299,-3.5067,8,178.88,0,276.47928,1,2-amino-4-(3-carboxypropanoyloxy)butanoic acid
"InChI=1S/C11H10O5/c12-9(5-6-10(13)14)7-3-1-2-4-8(7)11(15)16/h1-4H,5-6H2,(H,13,14)(H,15,16)",YIVWQNVQRXFZJB-UHFFFAOYSA-N,OC(=O)c1ccccc1C(=O)CCC(O)=O,C12H7Cl3O2,222.196,0.9890,5,190.38,0,196.98175,0,2-(3-carboxypropanoyl)benzoic acid
"InChI=1S/C32H44N7O20P3S/c1-32(2,26(45)29(46)35-10-9-21(41)34-11-12-63-31(47)18-6-4-3-5-17(18)19(40)7-8-22(42)43)14-56-62(53,54)59-61(51,52)55-13-20-25(58-60(48,49)50)24(44)30(57-20)39-16-38-23-27(33)3 6-15-37-28(23)39/h3-6,15-16,20,24-26,30,44-45H,7-14H2,1",AVOVYFCDODUXLY-UHFFFAOYSA-N,S(C(=O)c1ccccc1C(=O)CCC(O)=O)CCNC(=O)CCNC(=O)C(O)C(COP(OP(OCC1OC(n2c3ncnc(N)c3nc2)C(O)C1OP(O)(O)=O)(O)=O)(O)=O)(C)C,C13H10N2O3S,971.72101,-3.9649,27,705.63,3,725.41827,1,"4-[2-[2-[3-[[4-[[[5-(6-aminopurin-9-yl)-4-hydroxy-3-phosphonooxy-tetrahydrofuran-2-yl]methoxy-hydroxy-phosphoryl]oxy-hydroxy-phosphoryl]oxy-2-hydroxy-3,3-dimethyl-butanoyl]amino]propanoylamino]ethylsu lfanylcarbonyl]phenyl]-4-oxo-butanoic acid"
"InChI=1S/C8H18O/c1-2-3-4-5-6-7-8-9/h9H,2-8H2,1H3",KBPLFHHGFOOTCA-UHFFFAOYSA-N,OCCCCCCCC,C13H18O2,130.231,2.7610,6,136.75,0,58.540806,1,octan-1-ol
"InChI=1S/C47H70O3/c1-36(2)18-11-19-37(3)20-12-21-38(4)22-13-23-39(5)24-14-25-40(6)26-15-27-41(7)28-16-29-42(8)30-17-31-43(9)32-33-44-34-45(48)35-46(50-10)47(44)49/h18,20,22,24,26,28,30,32,34-35H,11-17 ,19,21,23,25,27,29,31,33H2,1-10H3",AFTBILPWMUSGIN-UHFFFAOYSA-N,O(C)C1=CC(=O)C=C(CC=C(CCC=C(CCC=C(CCC=C(CCC=C(CCC=C(CCC=C(CCC=C(C)C)C)C)C)C)C)C)C)C1=O,C13H9Cl3N2O,683.07397,7.2390,24,733.75,2,161.9406,0,"2-methoxy-6-[(2<I>E</I>,6<I>Z</I>,10<I>Z</I>,14<I>E</I>,18<I>Z</I>,22<I>Z</I>,26<I>E</I>)-3,7,11,15,19,23,27,31-octamethyldotriaconta-2,6,10,14,18,22,26,30-octaenyl]-1,4-benzoquinone"
"InChI=1S/C48H72O3/c1-36(2)19-12-20-37(3)21-13-22-38(4)23-14-24-39(5)25-15-26-40(6)27-16-28-41(7)29-17-30-42(8)31-18-32-43(9)33-34-45-44(10)46(49)35-47(51-11)48(45)50/h19,21,23,25,27,29,31,33,35H,12-18 ,20,22,24,26,28,30,32,34H2,1-11H3",FLYBTLROCQBHMR-UHFFFAOYSA-N,O(C)C1=CC(=O)C(C)=C(CC=C(CCC=C(CCC=C(CCC=C(CCC=C(CCC=C(CCC=C(CCC=C(C)C)C)C)C)C)C)C)C)C1=O,C14H12O3,697.10101,7.4130,24,747.25,2,185.56938,1,"5-methoxy-2-methyl-3-[(2<I>E</I>,6<I>Z</I>,10<I>E</I>,14<I>E</I>,18<I>E</I>,22<I>E</I>,26<I>E</I>)-3,7,11,15,19,23,27,31-octamethyldotriaconta-2,6,10,14,18,22,26,30-octaenyl]-1,4-benzoquinone"
"InChI=1S/C48H72O4/c1-35(2)19-12-20-36(3)21-13-22-37(4)23-14-24-38(5)25-15-26-39(6)27-16-28-40(7)29-17-30-41(8)31-18-32-42(9)33-34-44-43(10)45(49)47(51)48(52-11)46(44)50/h19,21,23,25,27,29,31,33,50H,12 -18,20,22,24,26,28,30,32,34H2,1-11H3",DQJWFZUHRQXFGB-UHFFFAOYSA-N,O(C)C=1C(=O)C(=O)C(C)=C(CC=C(CCC=C(CCC=C(CCC=C(CCC=C(CCC=C(CCC=C(CCC=C(C)C)C)C)C)C)C)C)C)C=1O,C15H12N2O,713.09998,7.1840,24,751.63,2,208.72733,0,"4-hydroxy-3-methoxy-6-methyl-5-[(2<I>E</I>,6<I>Z</I>,10<I>E</I>,14<I>E</I>,18<I>Z</I>,22<I>E</I>,26<I>Z</I>)-3,7,11,15,19,23,27,31-octamethyldotriaconta-2,6,10,14,18,22,26,30-octaenyl]-1,2-benzoquinon e"
InChI=1S/H2O/h1H2/p-1,XLYOFNOQVPJJNP-UHFFFAOYSA-M,[OH-],C4H4KNO4S,17.007,0.0880,0,10.13,0,67.627365,1,hydroxide
InChI=1S/H2O/h1H2,XLYOFNOQVPJJNP-UHFFFAOYSA-N,O,C7H6O3,18.014999,-0.0620,0,10.13,0,116.94235,1,water
"InChI=1S/C43H77N3O20P2/c1-3-5-7-9-11-13-15-17-19-21-29(48)25-34(51)44-36-40(64-35(52)26-30(49)22-20-18-16-14-12-10-8-6-4-2)38(54)31(27-47)63-42(36)65-68(59,60)66-67(57,58)61-28-32-37(53)39(55)41(62-32 )46-24-23-33(50)45-43(46)56/h23-24,29-32,36-42,47-49,53",KOJCFMYSTWNMQW-UHFFFAOYSA-N,P(OC1OC(CO)C(O)C(OC(=O)CC(O)CCCCCCCCCCC)C1NC(=O)CC(O)CCCCCCCCCCC)(OP(OCC1OC(N2C=CC(=O)NC2=O)C(O)C1O)(O)=O)(O)=O,C7H8N4O2,1018.038,2.4780,37,821.63,3,434.71481,0,"[2-[[[5-(2,4-dioxopyrimidin-1-yl)-3,4-dihydroxy-tetrahydrofuran-2-yl]methoxy-hydroxy-phosphoryl]oxy-hydroxy-phosphoryl]oxy-5-hydroxy-6-(hydroxymethyl)-3-(3-hydroxytetradecanoylamino)tetrahydropyran-4- yl] 3-hydroxytetradecanoate"
"InChI=1S/C3H4O4/c4-1-2(5)3(6)7/h4H,1H2,(H,6,7)",HHDDCCUIIUWNGJ-UHFFFAOYSA-N,OC(=O)C(=O)CO,C8H10N4O2,104.061,-1.3440,2,78.50,0,206.51817,1,3-hydroxy-2-oxo-propanoic acid
"InChI=1S/C18H34O2/c1-2-3-4-5-6-7-8-9-10-11-12-13-14-15-16-17-18(19)20/h9-10H,2-8,11-17H2,1H3,(H,19,20)",ZQPPMHVWECSIRJ-UHFFFAOYSA-N,OC(=O)CCCCCCC\C=C\CCCCCCCC,C8H14ClN5,282.46799,6.0780,15,296.13,1,72.629242,0,(<I>E</I>)-octadec-9-enoic acid