InChI,Key,smiles,Formula,Weight,logP(o/w),b_rotN,vol,lip_violation,ASA_P,Natural,ChemicalName
"InChI=1S/C20H32O2/c1-12-11-20(3)13(10-17(12)21)4-5-14-15-6-7-18(22)19(15,2)9-8-16(14)20/h12-16,18,22H,4-11H2,1-3H3",IKXILDNPCZPPRV-UHFFFAOYSA-N,OC1CCC2C3C(CCC12C)C1(CC(C)C(=O)CC1CC3)C,C7H6O3,304.474,4.0240,0,262.75,0,70.494354,1,"17-hydroxy-2,10,13-trimethyl-1,2,4,5,6,7,8,9,11,12,14,15,16,17-tetradecahydrocyclopenta[a]phenanthren-3-one"
"InChI=1S/C22H22FN3O2/c23-17-9-7-16(8-10-17)21(27)6-3-13-25-14-11-18(12-15-25)26-20-5-2-1-4-19(20)24-22(26)28/h1-2,4-5,7-11H,3,6,12-15H2,(H,24,28)",RMEDXOLNCUSCGS-UHFFFAOYSA-N,Fc1ccc(cc1)C(=O)CCCN1CCC(N2c3c(NC2=O)cccc3)=CC1,C7H8N4O2,379.435,3.1220,6,358.88,0,124.07111,0,"3-[1-[4-(4-fluorophenyl)-4-oxo-butyl]-3,6-dihydro-2<I>H</I>-pyridin-4-yl]-1<I>H</I>-benzimidazol-2-one"
"InChI=1S/C13H20N2O2/c16-11-13(17)10-14-6-8-15(9-7-14)12-4-2-1-3-5-12/h1-5,13,16-17H,6-11H2",PTVWPYVOOKLBCG-UHFFFAOYSA-N,OC(CN1CCN(CC1)c1ccccc1)CO,C8H10N4O2,236.315,0.0790,4,226.50,0,119.94818,1,"3-(4-phenylpiperazin-1-yl)propane-1,2-diol"
"InChI=1S/C23H36O3/c1-5-21(25)26-20-9-8-17-16-7-6-15-12-19(24)14(2)13-23(15,4)18(16)10-11-22(17,20)3/h14-18,20H,5-13H2,1-4H3",NOTIQUSPUUHHEH-UHFFFAOYSA-N,O(C(=O)CC)C1CCC2C3C(CCC12C)C1(CC(C)C(=O)CC1CC3)C,C8H14ClN5,360.53799,5.0880,3,317.50,1,53.708908,1,"(2,10,13-trimethyl-3-oxo-1,2,4,5,6,7,8,9,11,12,14,15,16,17-tetradecahydrocyclopenta[a]phenanthren-17-yl) propanoate"
"InChI=1S/C9H11NO5/c10-7(9(14)15)8(13)4-1-2-5(11)6(12)3-4/h1-3,7-8,11-13H,10H2,(H,14,15)",QXWYKJLNLSIPIN-UHFFFAOYSA-N,Oc1cc(ccc1O)C(O)C(N)C(O)=O,C8H8O3,213.189,-2.7647,3,171.63,1,254.06148,0,"2-amino-3-(3,4-dihydroxyphenyl)-3-hydroxy-propanoic acid"
"InChI=1S/C11H15BrClN/c1-2-14(8-7-13)9-10-5-3-4-6-11(10)12/h3-6H,2,7-9H2,1H3",SDJLVPMBBFRBLL-UHFFFAOYSA-N,Brc1ccccc1CN(CCCl)CC,C8H9NO2,276.60498,3.6460,5,215.13,0,86.882553,1,<I>N</I>-[(2-bromophenyl)methyl]-2-chloro-<I>N</I>-ethyl-ethanamine
"InChI=1S/C4H7NO2S2.2Na/c1-5(4(8)9)2-3(6)7;;/h2H2,1H3,(H,6,7)(H,8,9);;/q;2*+1/p-2",UKPNTUFVYBCQNS-UHFFFAOYSA-L,S=C([S-])N(CC(=O)[O-])C.[Na+].[Na+],C9H10O3,209.201,0.4450,3,213.38,0,580.21893,0,disodium;2-[methyl(sulfidocarbothioyl)amino]acetate
"InChI=1S/C4H7NO2S2/c1-5(4(8)9)2-3(6)7/h2H2,1H3,(H,6,7)(H,8,9)",KEZYHIPQRGTUDU-UHFFFAOYSA-N,SC(=S)N(CC(O)=O)C,C9H8O2,165.237,0.3240,3,126.38,0,241.16658,1,2-[dithiocarboxy(methyl)amino]acetic acid
"InChI=1S/C26H27N3O8/c1-11-10-29(14-9-15(30)20-18(17(11)14)23(31)26(2,28-20)25(33)37-6)24(32)13-7-12-8-16(34-3)21(35-4)22(36-5)19(12)27-13/h7-9,11,27-28,30H,10H2,1-6H3",WQAYQZWERWNDPV-UHFFFAOYSA-N,O(C)c1c(OC)c2[nH]c(cc2cc1OC)C(=O)N1CC(c2c3c(NC(C(OC)=O)(C)C3=O)c(O)cc12)C,C10H11ClO3,509.51498,1.9785,7,446.38,2,282.63412,1,"methyl 4-hydroxy-2,8-dimethyl-1-oxo-6-(5,6,7-trimethoxy-1<I>H</I>-indole-2-carbonyl)-7,8-dihydro-3<I>H</I>-pyrrolo[3,2-e]indole-2-carboxylate"
"InChI=1S/C25H25N3O7/c1-11-10-28(16-9-17(29)21-13(19(11)16)8-15(27-21)25(31)35-5)24(30)14-6-12-7-18(32-2)22(33-3)23(34-4)20(12)26-14/h6-9,11,26-27,29H,10H2,1-5H3",JMVYAMWFXLCMJM-UHFFFAOYSA-N,O(C)c1c(OC)c2[nH]c(cc2cc1OC)C(=O)N1CC(c2c3c([nH]c(c3)C(OC)=O)c(O)cc12)C,C10H11N3O3S,479.48898,2.8045,7,431.88,0,282.31003,0,"methyl 4-hydroxy-8-methyl-6-(5,6,7-trimethoxy-1<I>H</I>-indole-2-carbonyl)-7,8-dihydro-3<I>H</I>-pyrrolo[3,2-e]indole-2-carboxylate"
"InChI=1S/C17H12BrFO2S2/c1-23(20,21)14-8-4-11(5-9-14)15-10-16(18)22-17(15)12-2-6-13(19)7-3-12/h2-10H,1H3",AJFTZWGGHJXZOB-UHFFFAOYSA-N,Brc1sc(c(c1)-c1ccc(S(=O)(=O)C)cc1)-c1ccc(F)cc1,C10H12O3,411.315,5.7520,3,300.50,1,66.959167,1,5-bromo-2-(4-fluorophenyl)-3-(4-methylsulfonylphenyl)thiophene
"InChI=1S/C26H26N4O3/c1-16(27)30-11-10-23(15-30)33-22-8-6-19(7-9-22)24(26(31)32)13-17-2-3-18-4-5-20(25(28)29)14-21(18)12-17/h2-12,14-16,24H,13,27H2,1H3,(H3,28,29)(H,31,32)/p+1",FCZIGLIZRGMDGN-UHFFFAOYSA-O,O(c1ccc(cc1)C(Cc1cc2cc(ccc2cc1)C(=[NH2+])N)C(O)=O)c1ccn(c1)C(N)C,C12H7Cl3O2,443.52698,4.4310,8,414.75,1,289.63992,0,[amino-[7-[2-[4-[1-(1-aminoethyl)pyrrol-3-yl]oxyphenyl]-2-carboxy-ethyl]-2-naphthyl]methylene]ammonium
"InChI=1S/C26H26N4O3/c1-16(27)30-11-10-23(15-30)33-22-8-6-19(7-9-22)24(26(31)32)13-17-2-3-18-4-5-20(25(28)29)14-21(18)12-17/h2-12,14-16,24H,13,27H2,1H3,(H3,28,29)(H,31,32)",FCZIGLIZRGMDGN-UHFFFAOYSA-N,O(c1ccc(cc1)C(Cc1cc2cc(ccc2cc1)C(N)=N)C(O)=O)c1ccn(c1)C(N)C,C13H10N2O3S,442.51898,4.6440,8,420.25,1,277.51651,1,2-[4-[1-(1-aminoethyl)pyrrol-3-yl]oxyphenyl]-3-(7-carbamimidoyl-2-naphthyl)propanoic acid
"InChI=1S/C18H27NO2/c1-2-3-15-21-17-9-7-16(8-10-17)18(20)11-14-19-12-5-4-6-13-19/h7-10H,2-6,11-15H2,1H3",BZEWSEKUUPWQDQ-UHFFFAOYSA-N,O(CCCC)c1ccc(cc1)C(=O)CCN1CCCCC1,C13H18O2,289.41901,3.9250,8,295.00,0,57.875656,1,1-(4-butoxyphenyl)-3-(1-piperidyl)propan-1-one
"InChI=1S/C21H28O2/c1-13(22)17-6-7-18-16-5-4-14-12-15(23)8-10-20(14,2)19(16)9-11-21(17,18)3/h4-5,12,16-19H,6-11H2,1-3H3",JGMOKGBVKVMRFX-UHFFFAOYSA-N,O=C1CCC2(C3C(C4CCC(C(=O)C)C4(CC3)C)C=CC2=C1)C,C13H9Cl3N2O,312.453,3.0730,1,274.00,0,86.238754,0,"17-acetyl-10,13-dimethyl-1,2,8,9,11,12,14,15,16,17-decahydrocyclopenta[a]phenanthren-3-one"
"InChI=1S/C10H14N4O4/c1-12-8-7(9(17)13(2)10(12)18)14(5-11-8)3-6(16)4-15/h5-6,15-16H,3-4H2,1-2H3",KSCFJBIXMNOVSH-UHFFFAOYSA-N,O=C1N(C)C(=O)N(c2ncn(c12)CC(O)CO)C,C14H12O3,254.246,-1.8710,3,215.75,0,233.45186,1,"7-(2,3-dihydroxypropyl)-1,3-dimethyl-purine-2,6-dione"
"InChI=1S/C11H13BrN2O5/c12-2-1-6-4-14(11(18)13-10(6)17)9-3-7(16)8(5-15)19-9/h1-2,4,7-9,15-16H,3,5H2,(H,13,17,18)",ODZBBRURCPAEIQ-UHFFFAOYSA-N,BrC=CC1=CN(C2OC(CO)C(O)C2)C(=O)NC1=O,C15H12N2O,333.138,-0.9310,3,236.38,0,222.29289,0,"5-[(<I>E</I>)-2-bromovinyl]-1-[4-hydroxy-5-(hydroxymethyl)tetrahydrofuran-2-yl]pyrimidine-2,4-dione"
"InChI=1S/C21H27N3O3S/c1-16-4-3-5-19(22-16)12-15-24-13-10-18(11-14-24)21(25)17-6-8-20(9-7-17)23-28(2,26)27/h3-9,18,23H,10-15H2,1-2H3/p+2",SRUISGSHWFJION-UHFFFAOYSA-P,S(=O)(=O)(Nc1ccc(cc1)C(=O)C1CC[NH+](CC1)CCc1[nH+]c(ccc1)C)C,C4H4KNO4S,403.547,2.2760,7,359.63,0,151.05646,1,<I>N</I>-[4-[1-[2-(6-methylpyridin-1-ium-2-yl)ethyl]piperidin-1-ium-4-carbonyl]phenyl]methanesulfonamide
"InChI=1S/C21H27N3O3S/c1-16-4-3-5-19(22-16)12-15-24-13-10-18(11-14-24)21(25)17-6-8-20(9-7-17)23-28(2,26)27/h3-9,18,23H,10-15H2,1-2H3",SRUISGSHWFJION-UHFFFAOYSA-N,S(=O)(=O)(Nc1ccc(cc1)C(=O)C1CCN(CC1)CCc1nc(ccc1)C)C,C7H6O3,401.53101,1.9460,7,359.63,0,132.30748,1,<I>N</I>-[4-[1-[2-(6-methyl-2-pyridyl)ethyl]piperidine-4-carbonyl]phenyl]methanesulfonamide
"InChI=1S/C15H29N5O5/c1-9(2)7-10(20-14(25)11(21)8-12(22)23)13(24)18-5-3-4-6-19-15(16)17/h9-11,21H,3-8H2,1-2H3,(H,18,24)(H,20,25)(H,22,23)(H4,16,17,19)/p+1",QPQNJAXBPHVASB-UHFFFAOYSA-O,OC(CC(O)=O)C(=O)NC(CC(C)C)C(=O)NCCCC[NH+]=C(N)N,C7H8N4O2,360.435,-0.2230,14,308.25,1,363.47745,0,4-[[2-[(3-carboxy-2-hydroxy-propanoyl)amino]-4-methyl-pentanoyl]amino]butyl-(diaminomethylene)ammonium
"InChI=1S/C15H29N5O5/c1-9(2)7-10(20-14(25)11(21)8-12(22)23)13(24)18-5-3-4-6-19-15(16)17/h9-11,21H,3-8H2,1-2H3,(H,18,24)(H,20,25)(H,22,23)(H4,16,17,19)",QPQNJAXBPHVASB-UHFFFAOYSA-N,OC(CC(O)=O)C(=O)NC(CC(C)C)C(=O)NCCCCN=C(N)N,C8H10N4O2,359.427,-0.7000,14,308.25,1,345.36026,1,4-[[1-(4-guanidinobutylcarbamoyl)-3-methyl-butyl]amino]-3-hydroxy-4-oxo-butanoic acid
"InChI=1S/C15H26N2O5/c1-8(2)5-6-16-13(18)10(7-9(3)4)17-14(19)11-12(22-11)15(20)21/h8-12H,5-7H2,1-4H3,(H,16,18)(H,17,19)(H,20,21)",SCMSYZJDIQPSDI-UHFFFAOYSA-N,O1C(C(=O)NC(CC(C)C)C(=O)NCCC(C)C)C1C(O)=O,C8H14ClN5,314.38199,1.4880,11,280.63,0,147.8889,0,3-[[1-(isopentylcarbamoyl)-3-methyl-butyl]carbamoyl]oxirane-2-carboxylic acid
"InChI=1S/C17H30N2O5/c1-6-23-17(22)14-13(24-14)16(21)19-12(9-11(4)5)15(20)18-8-7-10(2)3/h10-14H,6-9H2,1-5H3,(H,18,20)(H,19,21)",SRVFFFJZQVENJC-UHFFFAOYSA-N,O1C(C(=O)NC(CC(C)C)C(=O)NCCC(C)C)C1C(OCC)=O,C8H8O3,342.436,2.0930,13,314.13,0,158.92163,1,ethyl 3-[[1-(isopentylcarbamoyl)-3-methyl-butyl]carbamoyl]oxirane-2-carboxylate
"InChI=1S/C32H39NO2/c1-32(2,3)28-18-16-25(17-19-28)30(34)15-10-22-33-23-20-29(21-24-33)35-31(26-11-6-4-7-12-26)27-13-8-5-9-14-27/h4-9,11-14,16-19,29,31H,10,15,20-24H2,1-3H3",MJJALKDDGIKVBE-UHFFFAOYSA-N,O(C(c1ccccc1)c1ccccc1)C1CCN(CC1)CCCC(=O)c1ccc(cc1)C(C)(C)C,C9H10O3,469.66898,7.8070,10,464.25,1,55.006626,0,4-(4-benzhydryloxy-1-piperidyl)-1-(4-tert-butylphenyl)butan-1-one
"InChI=1S/C20H34O4/c1-8-12(3)17(21)15(6)18(22)13(4)9-11(2)10-14(5)19-16(7)20(23)24-19/h9,12-17,19,21H,8,10H2,1-7H3",WOISDAHQBUYEAF-UHFFFAOYSA-N,O1C(C(CC(=CC(C(=O)C(C(O)C(CC)C)C)C)C)C)C(C)C1=O,C9H8O2,338.48801,3.5150,9,323.75,0,118.0322,1,"4-[(<I>E</I>)-8-hydroxy-1,3,5,7,9-pentamethyl-6-oxo-undec-3-enyl]-3-methyl-oxetan-2-one"
"InChI=1S/C21H36O4/c1-8-13(4)18(22)16(7)19(23)14(5)10-12(3)11-15(6)20-17(9-2)21(24)25-20/h10,13-18,20,22H,8-9,11H2,1-7H3",UNBMQQNYLCPCHS-UHFFFAOYSA-N,O1C(C(CC(=CC(C(=O)C(C(O)C(CC)C)C)C)C)C)C(CC)C1=O,C10H11ClO3,352.51498,3.9570,10,340.75,0,100.04107,0,"3-ethyl-4-[(<I>E</I>)-8-hydroxy-1,3,5,7,9-pentamethyl-6-oxo-undec-3-enyl]oxetan-2-one"
InChI=1S/C13H9NOSe/c15-13-11-8-4-5-9-12(11)16-14(13)10-6-2-1-3-7-10/h1-9H,DYEFUKCXAQOFHX-UHFFFAOYSA-N,[Se]1N(C(=O)c2c1cccc2)c1ccccc1,C10H11N3O3S,274.18399,2.7400,1,217.38,0,34.217915,1,"2-phenyl-1,2-benzoselenazol-3-one"
"InChI=1S/C20H28O5S/c1-12(2)15-9-13-5-6-14-11-19(3,18(21)22)7-8-20(14,4)16(13)10-17(15)26(23,24)25/h9-10,12,14H,5-8,11H2,1-4H3,(H,21,22)(H,23,24,25)",JCNPIRUREIRKMX-UHFFFAOYSA-N,S(O)(=O)(=O)c1cc2c(cc1C(C)C)CCC1CC(CCC12C)(C(O)=O)C,C12H7Cl3O2,380.505,3.9060,3,293.50,0,174.8885,0,"7-isopropyl-2,4<I>a</I>-dimethyl-6-sulfo-1,3,4,9,10,10<I>a</I>-hexahydrophenanthrene-2-carboxylic acid"
InChI=1S/C51H64N12O12S2/c1-25(2)38-49(72)74-22-36(59-42(65)34-21-53-30-17-13-15-19-32(30)57-34)44(67)55-28(6)46(69)63(10)40-48(71)62(9)39(26(3)4)50(73)75-23-35(58-41(64)33-20-52-29-16-12-14-18-31(29)5 6-33)43(66)54-27(5)45(68)60(7)37(47(70)61(38)8)24-77-51,AUJXLBOHYWTPFV-UHFFFAOYSA-N,S1CC2N(C)C(=O)C(NC(=O)C(NC(=O)c3nc4c(nc3)cccc4)COC(=O)C(N(C)C(=O)C(N(C)C(=O)C(NC(=O)C(NC(=O)c3nc4c(nc3)cccc4)COC(=O)C(N(C)C2=O)C(C)C)C)C1SC)C(C)C)C,C13H10N2O3S,1101.277,0.7611,9,885.50,2,362.69022,1,"<I>N</I>-[11,24-diisopropyl-2,4,12,15,17,25-hexamethyl-29-methylsulfanyl-3,6,10,13,16,19,23,26-octaoxo-7-(quinoxaline-2-carbonylamino)-9,22-dioxa-28-thia-2,5,12,15,18,25-hexazabicyclo[12.12.3]nonacosa n-20-yl]quinoxaline-2-carboxamide"
"InChI=1S/C18H15Cl3N2O/c19-14-3-1-13(2-4-14)11-24-18(10-23-8-7-22-12-23)16-6-5-15(20)9-17(16)21/h1-9,12,18H,10-11H2",LEZWWPYKPKIXLL-UHFFFAOYSA-N,Clc1cc(Cl)ccc1C(OCc1ccc(Cl)cc1)Cn1ccnc1,C13H18O2,381.69,5.4580,6,328.25,1,50.402012,0,"1-[2-[(4-chlorophenyl)methoxy]-2-(2,4-dichlorophenyl)ethyl]imidazole"
"InChI=1S/C11H11NO/c1-8-7-10(13)11(12-8)9-5-3-2-4-6-9/h2-6,11H,7H2,1H3",UTZMZYOTKXTSCX-UHFFFAOYSA-N,O=C1CC(=NC1c1ccccc1)C,C14H12O3,173.215,1.2220,1,175.75,0,55.664394,1,"5-methyl-2-phenyl-2,4-dihydropyrrol-3-one"
"InChI=1S/C11H16N2O5/c1-2-6-3-13(11(17)12-9(6)16)10-7(4-14)8(15)5-18-10/h3,7-8,10,14-15H,2,4-5H2,1H3,(H,12,16,17)",QFVJRGJHSZSRJI-UHFFFAOYSA-N,O1CC(O)C(CO)C1N1C=C(CC)C(=O)NC1=O,C15H12N2O,256.258,-1.5900,3,214.25,0,174.89203,0,"5-ethyl-1-[4-hydroxy-3-(hydroxymethyl)tetrahydrofuran-2-yl]pyrimidine-2,4-dione"
"InChI=1S/C10H15NO/c1-4-11(2,3)9-6-5-7-10(12)8-9/h5-8H,4H2,1-3H3/p+1",VWLHWLSRQJQWRG-UHFFFAOYSA-O,Oc1cc([N+](CC)(C)C)ccc1,C4H4KNO4S,166.244,1.5700,2,164.63,0,85.318985,1,ethyl-(3-hydroxyphenyl)-dimethyl-ammonium
"InChI=1S/C14H9ClF3NO2/c15-9-3-4-11-10(7-9)13(14(16,17)18,21-12(20)19-11)6-5-8-1-2-8/h3-4,7-8H,1-2H2,(H,19,20)",XPOQHMRABVBWPR-UHFFFAOYSA-N,Clc1cc2c(NC(OC2(C#CC2CC2)C(F)(F)F)=O)cc1,C7H6O3,315.67798,4.1028,3,239.50,0,212.73611,0,"6-chloro-4-(2-cyclopropylethynyl)-4-(trifluoromethyl)-1<I>H</I>-3,1-benzoxazin-2-one"
"InChI=1S/C35H39N2O7P/c1-25-20-26(2)33(45(41)43-23-35(3,4)24-44-45)32(28-14-11-17-30(21-28)37(39)40)31(25)34(38)42-19-18-36(29-15-9-6-10-16-29)22-27-12-7-5-8-13-27/h5-17,21,32H,18-20,22-24H2,1-4H3",XDFXEZVRDYIFRY-UHFFFAOYSA-N,P1(OCC(CO1)(C)C)(=O)C=1C(C(C(OCCN(Cc2ccccc2)c2ccccc2)=O)=C(CC=1C)C)c1cc([N+](=O)[O-])ccc1,C7H8N4O2,630.67798,6.4350,11,552.38,2,159.20364,1,"2-(<I>N</I>-benzylanilino)ethyl 5-(5,5-dimethyl-2-oxo-1,3,2&lambda;<sup>5</sup>-dioxaphosphinan-2-yl)-2,4-dimethyl-6-(3-nitrophenyl)cyclohexa-1,4-diene-1-carboxylate"
"InChI=1S/C22H30N4O6S/c23-20(16-17-4-2-1-3-5-17)22(28)26-11-13-32-15-14-31-12-10-25-21(27)18-6-8-19(9-7-18)33(24,29)30/h1-9,20H,10-16,23H2,(H,25,27)(H,26,28)(H2,24,29,30)",QNZDHHNWUXIYOH-UHFFFAOYSA-N,S(=O)(=O)(N)c1ccc(cc1)C(=O)NCCOCCOCCNC(=O)C(N)Cc1ccccc1,C8H10N4O2,478.57001,-0.5713,16,417.75,1,338.49048,1,<I>N</I>-[2-[2-[2-[(2-amino-3-phenyl-propanoyl)amino]ethoxy]ethoxy]ethyl]-4-sulfamoyl-benzamide
"InChI=1S/C14H23N5O/c1-3-4-5-6-7-11(10(2)20)19-9-18-12-13(15)16-8-17-14(12)19/h8-11,20H,3-7H2,1-2H3,(H2,15,16,17)",IOSAAWHGJUZBOG-UHFFFAOYSA-N,OC(C(n1c2ncnc(N)c2nc1)CCCCCC)C,C8H14ClN5,277.37201,2.2481,7,262.75,0,181.32304,0,3-(6-aminopurin-9-yl)nonan-2-ol
"InChI=1S/C20H36O2/c1-2-3-4-5-6-7-8-9-10-11-12-13-14-15-16-17-18-19-20(21)22/h12-13,15-16H,2-11,14,17-19H2,1H3,(H,21,22)",HSHDOYQKHGCWCC-UHFFFAOYSA-N,OC(=O)CCCC=CCC=CCCCCCCCCCCC,C8H8O3,308.50598,6.3680,16,327.38,1,116.48055,1,"(5<I>E</I>,8<I>E</I>)-icosa-5,8-dienoic acid"
"InChI=1S/C20H36O2/c1-2-3-4-5-6-7-8-9-10-11-12-13-14-15-16-17-18-19-20(21)22/h6-7,9-10H,2-5,8,11-19H2,1H3,(H,21,22)",XSXIVVZCUAHUJO-UHFFFAOYSA-N,OC(=O)CCCCCCCCCC=CCC=CCCCCC,C8H9NO2,308.50598,6.3680,16,327.38,1,129.48857,0,"(11<I>E</I>,14<I>E</I>)-icosa-11,14-dienoic acid"
"InChI=1S/C20H30O2/c1-2-3-4-5-6-7-8-9-10-11-12-13-14-15-16-17-18-19-20(21)22/h3-4,6-7,9-10,12-13,15-16H,2,5,8,11,14,17-19H2,1H3,(H,21,22)",JAZBEHYOTPTENJ-UHFFFAOYSA-N,OC(=O)CCCC=CCC=CCC=CCC=CCC=CCC,C9H10O3,302.45801,4.5860,13,327.38,1,182.40916,1,"(5<I>E</I>,8<I>E</I>,11<I>E</I>,14<I>E</I>,17<I>E</I>)-icosa-5,8,11,14,17-pentaenoic acid"
"InChI=1S/C20H34O2/c1-2-3-4-5-6-7-8-9-10-11-12-13-14-15-16-17-18-19-20(21)22/h3-4,6-7,9-10H,2,5,8,11-19H2,1H3,(H,21,22)",AHANXAKGNAKFSK-UHFFFAOYSA-N,OC(=O)CCCCCCCCCC=CCC=CCC=CCC,C9H8O2,306.48999,5.7740,15,327.38,1,157.25995,1,"(11<I>E</I>,14<I>E</I>,17<I>E</I>)-icosa-11,14,17-trienoic acid"
"InChI=1S/C21H36N8O7/c1-10(2)8-14(19(34)35)28-21(36)29-16(12-6-7-24-20(23)27-12)18(33)26-13(4-5-15(22)31)17(32)25-11(3)9-30/h9-14,16H,4-8H2,1-3H3,(H2,22,31)(H,25,32)(H,26,33)(H,34,35)(H3,23,24,27)(H2,2 8,29,36)",IJWCGVPEDDQUDE-UHFFFAOYSA-N,OC(=O)C(NC(=O)NC(C(=O)NC(CCC(=O)N)C(=O)NC(C=O)C)C1NC(=NCC1)N)CC(C)C,C10H11ClO3,512.56799,-1.9120,18,426.63,3,415.61139,0,"2-[[2-[[4-amino-1-[(1-methyl-2-oxo-ethyl)carbamoyl]-4-oxo-butyl]amino]-1-(2-amino-1,4,5,6-tetrahydropyrimidin-6-yl)-2-oxo-ethyl]carbamoylamino]-4-methyl-pentanoic acid"
"InChI=1S/C17H14N2/c1-10-14-9-18-8-7-12(14)11(2)17-16(10)13-5-3-4-6-15(13)19-17/h3-9,19H,1-2H3",CTSPAMFJBXKSOY-UHFFFAOYSA-N,[nH]1c2c(c3c1cccc3)c(c1c(ccnc1)c2C)C,C10H11N3O3S,246.31299,4.1190,0,250.50,0,32.550507,1,"5,11-dimethyl-6<I>H</I>-pyrido[4,3-b]carbazole"
"InChI=1S/C17H26O4/c1-2-3-4-5-6-7-8-9-10-11-13-16(20)14(18)12-15(19)17(13)21/h12,18,21H,2-11H2,1H3",IRSFLDGTOHBADP-UHFFFAOYSA-N,OC1=C(CCCCCCCCCCC)C(=O)C(O)=CC1=O,C13H9Cl3N2O,294.39099,4.4400,10,279.63,0,159.58234,1,"2,5-dihydroxy-3-undecyl-1,4-benzoquinone"
"InChI=1S/C17H26N4O/c1-3-22-14-13-21-16-8-5-4-7-15(16)18-17(21)20-10-6-9-19(2)11-12-20/h4-5,7-8H,3,6,9-14H2,1-2H3",KBUZBQVCBVDWKX-UHFFFAOYSA-N,O(CCn1c2c(nc1N1CCCN(CC1)C)cccc2)CC,C14H12O3,302.422,2.1860,5,298.63,0,88.538712,0,"1-(2-ethoxyethyl)-2-(4-methyl-1,4-diazepan-1-yl)benzimidazole"
"InChI=1S/C15H10O5/c1-6-2-8-12(10(17)3-6)15(20)13-9(14(8)19)4-7(16)5-11(13)18/h2-5,16-18H,1H3",RHMXXJGYXNZAPX-UHFFFAOYSA-N,Oc1c2c(cc(c1)C)C(=O)c1c(C2=O)c(O)cc(O)c1,C15H12N2O,270.23999,2.4820,0,233.63,0,177.93578,1,"1,3,8-trihydroxy-6-methyl-anthracene-9,10-dione"
"InChI=1S/C11H17N3O3/c1-3-17-10-9(8-12-13(2)11(10)15)14-4-6-16-7-5-14/h8H,3-7H2,1-2H3",URJQOOISAKEBKW-UHFFFAOYSA-N,O1CCN(CC1)C=1C=NN(C)C(=O)C=1OCC,C4H4KNO4S,239.27499,0.5420,3,218.88,0,154.79111,1,4-ethoxy-2-methyl-5-morpholino-pyridazin-3-one
"InChI=1S/C20H28N2O5/c1-3-27-20(26)16(12-11-15-8-5-4-6-9-15)21-14(2)18(23)22-13-7-10-17(22)19(24)25/h4-6,8-9,14,16-17,21H,3,7,10-13H2,1-2H3,(H,24,25)",GBXSMTUPTTWBMN-UHFFFAOYSA-N,O(C(=O)C(NC(C(=O)N1CCCC1C(O)=O)C)CCc1ccccc1)CC,C7H6O3,376.453,2.3920,11,346.50,0,150.21854,0,1-[2-[(1-ethoxycarbonyl-3-phenyl-propyl)amino]propanoyl]pyrrolidine-2-carboxylic acid
"InChI=1S/C41H43N3O7S/c45-26-28-17-19-29(20-18-28)35-25-34(27-52-41-43-38(30-11-5-3-6-12-30)39(51-41)31-13-7-4-8-14-31)49-40(50-35)32-21-23-33(24-22-32)42-36(46)15-9-1-2-10-16-37(47)44-48/h3-8,11-14,17 -24,34-35,40,45,48H,1-2,9-10,15-16,25-27H2,(H,42,46)(H,",BHUZLJOUHMBZQY-UHFFFAOYSA-N,S(CC1OC(OC(C1)c1ccc(cc1)CO)c1ccc(NC(=O)CCCCCCC(=O)NO)cc1)c1oc(c(n1)-c1ccccc1)-c1ccccc1,C7H8N4O2,721.875,7.7770,18,664.38,2,327.24432,1,"<I>N</I>-[4-[4-[(4,5-diphenyloxazol-2-yl)sulfanylmethyl]-6-[4-(hydroxymethyl)phenyl]-1,3-dioxan-2-yl]phenyl]-8-(hydroxyamino)-8-oxo-octanamide"
"InChI=1S/C8H10O5/c9-7(10)5-3-1-2-4(13-3)6(5)8(11)12/h3-6H,1-2H2,(H,9,10)(H,11,12)",GXEKYRXVRROBEV-UHFFFAOYSA-N,O1C2CCC1C(C(O)=O)C2C(O)=O,C8H14ClN5,186.16299,-0.4700,2,133.63,0,178.65765,1,"7-oxabicyclo[2.2.1]heptane-2,3-dicarboxylic acid"
"InChI=1S/C3H2ClF5O/c4-1(5)3(8,9)10-2(6)7/h1-2H",JPGQOUSTVILISH-UHFFFAOYSA-N,ClC(F)C(F)(F)OC(F)F,C8H8O3,184.491,2.3498,3,101.63,0,248.80002,1,"2-chloro-1-(difluoromethoxy)-1,1,2-trifluoro-ethane"
"InChI=1S/C33H57N3O9/c1-16(2)22-31(40)43-26(20(9)10)29(38)35(14)24(18(5)6)33(42)45-27(21(11)12)30(39)36(15)23(17(3)4)32(41)44-25(19(7)8)28(37)34(22)13/h16-27H,1-15H3",MIZMDSVSLSIMSC-UHFFFAOYSA-N,O1C(C(C)C)C(=O)N(C)C(C(C)C)C(OC(C(C)C)C(=O)N(C)C(C(C)C)C(OC(C(C)C)C(=O)N(C)C(C(C)C)C1=O)=O)=O,C8H9NO2,639.83099,5.8210,6,549.88,2,115.69904,0,"3,6,9,12,15,18-hexaisopropyl-4,10,16-trimethyl-1,7,13-trioxa-4,10,16-triazacyclooctadecane-2,5,8,11,14,17-hexone"
"InChI=1S/C31H55N3O6/c1-2-3-4-5-6-7-8-9-10-11-12-13-14-15-16-17-18-19-20-21-27(36)32-26-22-23-34(31(39)33-26)30-29(38)28(37)25(24-35)40-30/h22-23,25,28-30,35,37-38H,2-21,24H2,1H3,(H,32,33,36,39)",SAMRUMKYXPVKPA-UHFFFAOYSA-N,O1C(CO)C(O)C(O)C1N1C=CC(=NC1=O)NC(=O)CCCCCCCCCCCCCCCCCCCCC,C9H10O3,565.79596,6.3070,24,538.25,2,263.53961,1,"<I>N</I>-[1-[3,4-dihydroxy-5-(hydroxymethyl)tetrahydrofuran-2-yl]-2-oxo-pyrimidin-4-yl]docosanamide"
"InChI=1S/C15H17FN4O3/c1-2-19-8-10(15(22)23)12(21)9-7-11(16)14(18-13(9)19)20-5-3-17-4-6-20/h7-8,17H,2-6H2,1H3,(H,22,23)",IDYZIJYBMGIQMJ-UHFFFAOYSA-N,Fc1cc2c(nc1N1CCNCC1)N(C=C(C(O)=O)C2=O)CC,C9H8O2,320.32401,0.2660,3,279.75,0,208.36243,0,"1-ethyl-6-fluoro-4-oxo-7-piperazin-1-yl-1,8-naphthyridine-3-carboxylic acid"
"InChI=1S/C30H46O4/c1-25(2)21-8-11-30(7)23(28(21,5)10-9-22(25)32)20(31)16-18-19-17-27(4,24(33)34)13-12-26(19,3)14-15-29(18,30)6/h16,19,21-23,32H,8-15,17H2,1-7H3,(H,33,34)",MPDGHEJMBKOTSU-UHFFFAOYSA-N,OC1CCC2(C3C(CCC2C1(C)C)(C)C1(C(C2CC(CCC2(CC1)C)(C(O)=O)C)=CC3=O)C)C,C10H11ClO3,470.694,5.5930,1,369.63,1,135.62218,1,"10-hydroxy-2,4<I>a</I>,6<I>a</I>,6<I>b</I>,9,9,12<I>a</I>-heptamethyl-13-oxo-3,4,5,6,6<I>a</I>,7,8,8<I>a</I>,10,11,12,14<I>b</I>-dodecahydro-1<I>H</I>-picene-2-carboxylic acid"
"InChI=1S/C23H28O6/c1-28-23(27)12-8-3-2-7-11-19-20(22(26)15-21(19)25)14-13-17(24)16-29-18-9-5-4-6-10-18/h3-7,9-10,13-14,17,19-20,22,24,26H,8,11-12,15-16H2,1H3",PTOJVMZPWPAXER-UHFFFAOYSA-N,O(CC(O)C=CC1C(CC=C=CCCC(OC)=O)C(=O)CC1O)c1ccccc1,C10H11N3O3S,400.47098,1.5910,11,384.63,0,199.14415,1,"methyl 7-[3-hydroxy-2-[(<I>E</I>)-3-hydroxy-4-phenoxy-but-1-enyl]-5-oxo-cyclopentyl]hepta-4,5-dienoate"
"InChI=1S/C25H43N13O10/c26-3-1-16(41)10(27)5-17(42)33-12-6-31-23(47)18(11-2-4-30-24(28)37-11)38-20(44)13(7-32-25(29)48)34-21(45)14(8-39)36-22(46)15(9-40)35-19(12)43/h7,10-12,14-16,18,39-41H,1-6,8-9,26- 27H2,(H,31,47)(H,33,42)(H,34,45)(H,35,43)(H,36,46)(H,38",HPWIIERXAFODPP-UHFFFAOYSA-N,O=C1NCC(NC(=O)CC(N)C(O)CCN)C(=O)NC(CO)C(=O)NC(CO)C(=O)NC(=CNC(=O)N)C(=O)NC1C1NC(=NCC1)N,C13H10N2O3S,685.70001,-9.5700,12,520.38,3,585.24585,0,"3,6-diamino-<I>N</I>-[(6<I>Z</I>)-3-(2-amino-1,4,5,6-tetrahydropyrimidin-6-yl)-9,12-bis(hydroxymethyl)-2,5,8,11,14-pentaoxo-6-(ureidomethylene)-1,4,7,10,13-pentazacyclohexadec-15-yl]-4-hydroxy-hexanam ide"