InChI,Key,smiles,Formula,Weight,logP(o/w),b_rotN,vol,lip_violation,ASA_P,Natural,ChemicalName
"InChI=1S/C20H32O6/c1-7-17(4)10-12(22)20(25)18(5)11(21)8-9-16(2,3)14(18)13(23)15(24)19(20,6)26-17/h7,11,13-15,21,23-25H,1,8-10H2,2-6H3",WPDITXOBNLYZHH-UHFFFAOYSA-N,O1C2(C)C(O)(C3(C(C(O)C2O)C(CCC3O)(C)C)C)C(=O)CC1(C=C)C,C8H9NO2,368.47,1.3430,1,273.75,0,149.4005,0,"5,6,10,10<I>b</I>-tetrahydroxy-3,4<I>a</I>,7,7,10<I>a</I>-pentamethyl-3-vinyl-5,6,6<I>a</I>,8,9,10-hexahydro-2<I>H</I>-benzo[f]chromen-1-one"
"InChI=1S/C10H13N3/c11-10(12)13-6-5-8-3-1-2-4-9(8)7-13/h1-4H,5-7H2,(H3,11,12)/p+1",JWPGJSVJDAJRLW-UHFFFAOYSA-O,[N+]1(CCc2c(C1)cccc2)=C(N)N,C9H10O3,176.243,1.0880,0,171.88,0,125.56955,1,"3,4-dihydro-1<I>H</I>-isoquinolin-2-ium-2-ylidenemethanediamine"
"InChI=1S/C10H13N3/c11-10(12)13-6-5-8-3-1-2-4-9(8)7-13/h1-4H,5-7H2,(H3,11,12)",JWPGJSVJDAJRLW-UHFFFAOYSA-N,NC(=N)N1CCc2c(C1)cccc2,C9H8O2,175.235,1.5700,1,171.88,0,120.82877,0,"3,4-dihydro-1<I>H</I>-isoquinoline-2-carboxamidine"
"InChI=1S/C16H38N2/c1-17(2,3)15-13-11-9-7-8-10-12-14-16-18(4,5)6/h7-16H2,1-6H3/q+2",MTCUAOILFDZKCO-UHFFFAOYSA-N,[N+](CCCCCCCCCC[N+](C)(C)C)(C)(C)C,C10H11N3O3S,258.49399,2.9380,11,271.63,0,107.62991,1,trimethyl-[10-(trimethylammonio)decyl]ammonium
"InChI=1S/C10H20O2/c1-2-3-4-5-6-7-8-9-10(11)12/h2-9H2,1H3,(H,11,12)",GHVNFZFCNZKVNT-UHFFFAOYSA-N,OC(=O)CCCCCCCCC,C10H12O3,172.26799,3.4900,8,175.25,0,86.175438,0,decanoic acid
"InChI=1S/C11H13N5O4/c1-5-7(18)8(19)11(2-17,20-5)16-4-15-6-9(12)13-3-14-10(6)16/h3-4,7-8,17-19H,1-2H2,(H2,12,13,14)",UZSSGAOAYPICBZ-UHFFFAOYSA-N,O1C(n2c3ncnc(N)c3nc2)(CO)C(O)C(O)C1=C,C12H7Cl3O2,279.25598,-1.0579,2,220.38,0,308.63232,1,"2-(6-aminopurin-9-yl)-2-(hydroxymethyl)-5-methylene-tetrahydrofuran-3,4-diol"
"InChI=1S/C19H30O4/c1-5-6-7-8-9-10-11-12-13-15-14(2)16(20)18(22-3)19(23-4)17(15)21/h5-13H2,1-4H3",VMEGFMNVSYVVOM-UHFFFAOYSA-N,O(C)C=1C(=O)C(CCCCCCCCCC)=C(C)C(=O)C=1OC,C13H10N2O3S,322.44501,4.3867,11,313.88,0,120.37731,0,"2-decyl-5,6-dimethoxy-3-methyl-1,4-benzoquinone"
"InChI=1S/C7H9NO2/c1-5-7(10)6(9)3-4-8(5)2/h3-4,10H,1-2H3",TZXKOCQBRNJULO-UHFFFAOYSA-N,OC=1C(=O)C=CN(C)C=1C,C13H18O2,139.15399,0.3980,0,131.75,0,107.49588,1,"3-hydroxy-1,2-dimethyl-pyridin-4-one"
"InChI=1S/C25H48N6O8/c1-21(32)29(37)18-9-3-6-16-27-22(33)12-14-25(36)31(39)20-10-4-7-17-28-23(34)11-13-24(35)30(38)19-8-2-5-15-26/h37-39H,2-20,26H2,1H3,(H,27,33)(H,28,34)",UBQYURCVBFRUQT-UHFFFAOYSA-N,O=C(N(O)CCCCCNC(=O)CCC(=O)N(O)CCCCCN)CCC(=O)NCCCCCN(O)C(=O)C,C13H9Cl3N2O,560.69299,-0.8470,28,506.00,3,339.91528,1,<I>N</I>-[5-[[4-[5-[acetyl(hydroxy)amino]pentylamino]-4-oxo-butanoyl]-hydroxy-amino]pentyl]-<I>N</I>'-(5-aminopentyl)-<I>N</I>'-hydroxy-butanediamide
"InChI=1S/C24H34O5/c1-13(4-7-21(28)29)16-5-6-17-22-18(12-20(27)24(16,17)3)23(2)9-8-15(25)10-14(23)11-19(22)26/h13-14,16-18,22H,4-12H2,1-3H3,(H,28,29)/p-1",OHXPGWPVLFPUSM-UHFFFAOYSA-M,O=C1CC2C(C3CCC(C(CCC(=O)[O-])C)C13C)C(=O)CC1CC(=O)CCC12C,C14H12O3,401.52298,2.2610,4,331.50,0,178.3636,0,"4-(10,13-dimethyl-3,7,12-trioxo-1,2,4,5,6,8,9,11,14,15,16,17-dodecahydrocyclopenta[a]phenanthren-17-yl)pentanoate"
"InChI=1S/C24H34O5/c1-13(4-7-21(28)29)16-5-6-17-22-18(12-20(27)24(16,17)3)23(2)9-8-15(25)10-14(23)11-19(22)26/h13-14,16-18,22H,4-12H2,1-3H3,(H,28,29)",OHXPGWPVLFPUSM-UHFFFAOYSA-N,O=C1CC2C(C3CCC(C(CCC(O)=O)C)C13C)C(=O)CC1CC(=O)CCC12C,C15H12N2O,402.53098,2.1400,4,331.50,0,183.67511,1,"4-(10,13-dimethyl-3,7,12-trioxo-1,2,4,5,6,8,9,11,14,15,16,17-dodecahydrocyclopenta[a]phenanthren-17-yl)pentanoic acid"
"InChI=1S/C26H32N2O5/c1-3-33-26(32)23(14-13-19-9-5-4-6-10-19)27-18(2)25(31)28(17-24(29)30)22-15-20-11-7-8-12-21(20)16-22/h4-12,18,22-23,27H,3,13-17H2,1-2H3,(H,29,30)",WOUOLAUOZXOLJQ-UHFFFAOYSA-N,O(C(=O)C(NC(C(=O)N(CC(O)=O)C1Cc2c(C1)cccc2)C)CCc1ccccc1)CC,C4H4KNO4S,452.55099,3.6420,13,422.75,0,140.00717,0,2-[2-[(1-ethoxycarbonyl-3-phenyl-propyl)amino]propanoyl-indan-2-yl-amino]acetic acid
"InChI=1S/C21H30O2/c1-5-6-7-8-15-12-18(22)20-16-11-14(2)9-10-17(16)21(3,4)23-19(20)13-15/h9,12-13,16-17,22H,5-8,10-11H2,1-4H3",HCAWPGARWVBULJ-UHFFFAOYSA-N,O1c2c(C3C(CC=C(C3)C)C1(C)C)c(O)cc(c2)CCCCC,C7H6O3,314.46899,5.1560,4,306.50,1,49.210293,1,"6,6,9-trimethyl-3-pentyl-6<I>a</I>,7,10,10<I>a</I>-tetrahydrobenzo[c]chromen-1-ol"
"InChI=1S/C21H30O2/c1-5-6-7-8-15-12-18(22)20-16-11-14(2)9-10-17(16)21(3,4)23-19(20)13-15/h11-13,16-17,22H,5-10H2,1-4H3",CYQFCXCEBYINGO-UHFFFAOYSA-N,O1c2c(C3C(CCC(=C3)C)C1(C)C)c(O)cc(c2)CCCCC,C7H8N4O2,314.46899,5.5100,4,306.50,1,44.350929,1,"6,6,9-trimethyl-3-pentyl-6<I>a</I>,7,8,10<I>a</I>-tetrahydrobenzo[c]chromen-1-ol"
"InChI=1S/C14H8N2.C8H19N4.Rh/c15-13-11-7-3-1-5-9(11)10-6-2-4-8-12(10)14(13)16;1-7(9)5-11-3-4-12-6-8(2)10;/h1-8H;7-11H,3-6H2,1-2H3;/q-2;-3;+2",GVXNCXWRDXZTSH-UHFFFAOYSA-N,[Rh+2].N(CC([NH-])C)CC[N-]CC([NH-])C.[N-]=C1c2c(-c3c(cccc3)C1=[N-])cccc2,C8H10N4O2,478.40601,1.3480,7,393.88,0,168.45967,0,(10-azanidylidene-9-phenanthrylidene)azanide;2-azanidylpropyl-[2-(2-azanidylpropylamino)ethyl]azanide;rhodium(2+)
"InChI=1S/C8H22N4/c1-7(9)5-11-3-4-12-6-8(2)10/h7-8,11-12H,3-6,9-10H2,1-2H3",NZNLWMMWMCQCIE-UHFFFAOYSA-N,N(CC(N)C)CCNCC(N)C,C8H14ClN5,174.29199,-1.4000,7,171.63,1,176.1073,1,"<I>N</I>1-[2-(2-aminopropylamino)ethyl]propane-1,2-diamine"
"InChI=1S/C14H10N2/c15-13-11-7-3-1-5-9(11)10-6-2-4-8-12(10)14(13)16/h1-8,15-16H/b15-13-,16-14+",ASBFNPBREVZDOE-VCFJNTAESA-N,N=C1c2c(-c3c(cccc3)C1=N)cccc2,C8H8O3,206.248,3.1120,0,215.50,0,96.197151,0,"phenanthrene-9,10-diimine"
"InChI=1S/C22H19Br2NO3/c1-22(2)17(12-19(23)24)20(22)21(26)28-18(13-25)14-7-6-10-16(11-14)27-15-8-4-3-5-9-15/h3-12,17-18,20H,1-2H3",OWZREIFADZCYQD-UHFFFAOYSA-N,BrC(Br)=CC1C(C)(C)C1C(OC(C#N)c1cc(Oc2ccccc2)ccc1)=O,C8H9NO2,505.20599,6.1164,8,392.38,2,119.81409,1,"[cyano-(3-phenoxyphenyl)methyl] 3-(2,2-dibromovinyl)-2,2-dimethyl-cyclopropanecarboxylate"
"InChI=1S/C21H21ClN2O8/c1-24(2)14-7-5-6-10(16(27)12-9(25)4-3-8(22)11(12)15(6)26)18(29)21(7,32)19(30)13(17(14)28)20(23)31/h3-4,6-7,14-15,25-27,31-32H,5,23H2,1-2H3",HXPZLYXFFSKHJA-UHFFFAOYSA-N,Clc1c2c(C(O)=C3C(CC4C(O)(C(=O)C(=C(O)N)C(=O)C4N(C)C)C3=O)C2O)c(O)cc1,C9H10O3,464.858,0.0140,1,359.13,1,297.21918,1,"(2<I>Z</I>)-2-[amino(hydroxy)methylene]-7-chloro-4-(dimethylamino)-6,10,11,12<I>a</I>-tetrahydroxy-4<I>a</I>,5,5<I>a</I>,6-tetrahydro-4<I>H</I>-tetracene-1,3,12-trione"
"InChI=1S/C16H24N4O3/c1-4-6-8-19-14-13(18(11-17-14)10-12(3)21)15(22)20(16(19)23)9-7-5-2/h11H,4-10H2,1-3H3",HJPRDDKCXVCFOH-UHFFFAOYSA-N,O=C1N(CCCC)C(=O)N(c2ncn(c12)CC(=O)C)CCCC,C9H8O2,320.39301,1.8710,8,301.00,0,118.31734,0,"7-acetonyl-1,3-dibutyl-purine-2,6-dione"
"InChI=1S/C17H24O2/c1-3-5-6-7-8-9-10-14-17(19)15-12-11-13-16(18)4-2/h3,10,14,16-19H,1,4-9H2,2H3",XVWSXBIPJCKJCU-UHFFFAOYSA-N,OC(CC)C#CC#CC(O)C=CCCCCCC=C,C10H11ClO3,260.37698,4.3990,11,280.38,0,185.66862,1,"(9<I>E</I>)-heptadeca-9,16-dien-4,6-diyne-3,8-diol"
"InChI=1S/C17H22O2/c1-3-5-6-7-11-14-17(19)15-12-9-8-10-13-16(18)4-2/h3-4,12,15-19H,1-2,5-7,11,14H2",OVQWXPMFKIYGRC-UHFFFAOYSA-N,OC(CCCCCC=C)C=CC#CC#CC(O)C=C,C10H11N3O3S,258.36099,4.4600,11,285.13,0,208.1595,0,"(8<I>E</I>)-heptadeca-1,8,16-trien-4,6-diyne-3,10-diol"
"InChI=1S/C24H40O4/c1-14(4-9-22(27)28)18-7-8-19-17-6-5-15-12-16(25)10-11-23(15,2)20(17)13-21(26)24(18,19)3/h14-21,25-26H,4-13H2,1-3H3,(H,27,28)",KXGVEGMKQFWNSR-UHFFFAOYSA-N,OC1CC2C(C3CCC(C(CCC(O)=O)C)C13C)CCC1CC(O)CCC12C,C10H12O3,392.57999,4.9140,4,328.00,0,181.72426,1,"4-(3,12-dihydroxy-10,13-dimethyl-2,3,4,5,6,7,8,9,11,12,14,15,16,17-tetradecahydro-1<I>H</I>-cyclopenta[a]phenanthren-17-yl)pentanoic acid"
"InChI=1S/C22H24O7/c1-24-19-9-14(10-20(25-2)21(19)26-3)7-16-15(11-27-22(16)23)6-13-4-5-17-18(8-13)29-12-28-17/h4-5,8-10,15-16H,6-7,11-12H2,1-3H3",GMLDZDDTZKXJLU-UHFFFAOYSA-N,O1CC(Cc2cc3OCOc3cc2)C(Cc2cc(OC)c(OC)c(OC)c2)C1=O,C12H7Cl3O2,400.427,2.8375,7,362.88,0,215.70552,1,"4-(1,3-benzodioxol-5-ylmethyl)-3-[(3,4,5-trimethoxyphenyl)methyl]tetrahydrofuran-2-one"
"InChI=1S/C24H32O5/c1-5-20(28)29-24(14(2)25)11-9-18-17-7-6-15-12-16(26)8-10-22(15,3)21(17)19(27)13-23(18,24)4/h8,10,12,17-19,21,27H,5-7,9,11,13H2,1-4H3",DRSFVGQMPYTGJY-UHFFFAOYSA-N,O(C(=O)CC)C1(CCC2C3C(C4(C(=CC(=O)C=C4)CC3)C)C(O)CC12C)C(=O)C,C13H18O2,400.51498,3.6620,4,325.38,0,118.02448,1,"(17-acetyl-11-hydroxy-10,13-dimethyl-3-oxo-7,8,9,11,12,14,15,16-octahydro-6<I>H</I>-cyclopenta[a]phenanthren-17-yl) propanoate"
"InChI=1S/C11H16O4/c1-3-7(13)11-9(15-11)5-4-8-10(14-8)6(2)12/h3-13H,1H2,2H3",DLVJMFOLJOOWFS-UHFFFAOYSA-N,O1C(C(O)C=C)C1C=CC1OC1C(O)C,C13H9Cl3N2O,212.245,0.4070,5,198.25,0,172.60918,0,1-[3-[(<I>E</I>)-2-[3-(1-hydroxyethyl)oxiran-2-yl]vinyl]oxiran-2-yl]prop-2-en-1-ol
"InChI=1S/C30H38N4/c1-23-21-27(31)25-15-9-11-17-29(25)33(23)19-13-7-5-3-4-6-8-14-20-34-24(2)22-28(32)26-16-10-12-18-30(26)34/h9-12,15-18,21-22,31-32H,3-8,13-14,19-20H2,1-2H3/p+2",PCSWXVJAIHCTMO-UHFFFAOYSA-P,[n+]1(c2c(cccc2)c(N)cc1C)CCCCCCCCCC[n+]1c2c(cccc2)c(N)cc1C,C14H12O3,456.67798,8.4760,11,465.13,1,139.31529,1,1-[10-(4-amino-2-methyl-quinolin-1-ium-1-yl)decyl]-2-methyl-quinolin-1-ium-4-amine
"InChI=1S/C19H28N4O5/c1-12(2)8-15(19(27)28)23-18(26)14(9-13-6-4-3-5-7-13)22-17(25)11-21-16(24)10-20/h3-7,12,14-15H,8-11,20H2,1-2H3,(H,21,24)(H,22,25)(H,23,26)(H,27,28)",OCMQTALHBUOBFN-UHFFFAOYSA-N,OC(=O)C(NC(=O)C(NC(=O)CNC(=O)CN)Cc1ccccc1)CC(C)C,C15H12N2O,392.45599,0.1330,14,346.88,1,261.6405,1,2-[[2-[[2-[(2-aminoacetyl)amino]acetyl]amino]-3-phenyl-propanoyl]amino]-4-methyl-pentanoic acid
"InChI=1S/C18H22N2/c1-19-13-6-14-20-17-9-4-2-7-15(17)11-12-16-8-3-5-10-18(16)20/h2-5,7-10,19H,6,11-14H2,1H3",HCYAFALTSJYZDH-UHFFFAOYSA-N,N(CCCN1c2c(CCc3c1cccc3)cccc2)C,C4H4KNO4S,266.388,3.8360,4,272.88,0,53.210136,0,"3-(5,6-dihydrobenzo[b][1]benzazepin-11-yl)-<I>N</I>-methyl-propan-1-amine"
"InChI=1S/C47H74O19/c1-20-41(64-36-16-30(50)42(21(2)60-36)65-37-17-31(51)43(22(3)61-37)66-44-40(56)39(55)38(54)32(18-48)63-44)29(49)15-35(59-20)62-25-8-10-45(4)24(13-25)6-7-27-28(45)14-33(52)46(5)26(9- 11-47(27,46)57)23-12-34(53)58-19-23/h12,20-22,24-33,35-",OBATZBGFDSVCJD-UHFFFAOYSA-N,O1C(CO)C(O)C(O)C(O)C1OC1C(OC(OC2C(OC(OC3C(OC(OC4CC5CCC6C(CC(O)C7(C)C(CCC67O)C6=CC(OC6)=O)C5(CC4)C)CC3O)C)CC2O)C)CC1O)C,C7H6O3,943.08997,1.4080,10,715.00,3,357.85406,1,"3-[12,14-dihydroxy-3-[4-hydroxy-5-[4-hydroxy-5-[4-hydroxy-6-methyl-5-[3,4,5-trihydroxy-6-(hydroxymethyl)tetrahydropyran-2-yl]oxy-tetrahydropyran-2-yl]oxy-6-methyl-tetrahydropyran-2-yl]oxy-6-methyl-tet rahydropyran-2-yl]oxy-10,13-dimethyl-1,2,3,4,5,6,7,8,9,11,12,15,16,17-tetradecahydrocyclopenta[a]phenanthren-17-yl]-2<I>H</I>-furan-5-one"
"InChI=1S/C15H11ClN2O/c16-11-6-7-13-12(8-11)15(17-9-14(19)18-13)10-4-2-1-3-5-10/h1-8H,9H2,(H,18,19)",AKPLHCDWDRPJGD-UHFFFAOYSA-N,Clc1cc2c(NC(=O)CN=C2c2ccccc2)cc1,C7H8N4O2,270.71899,2.9120,1,246.13,0,93.595383,0,"7-chloro-5-phenyl-1,3-dihydro-1,4-benzodiazepin-2-one"
"InChI=1S/C17H27NO3/c1-3-4-5-6-7-8-9-17(20)18-13-14-10-11-15(19)16(12-14)21-2/h10-12,19H,3-9,13H2,1-2H3,(H,18,20)",RGOVYLWUIBMPGK-UHFFFAOYSA-N,O(C)c1cc(ccc1O)CNC(=O)CCCCCCCC,C8H10N4O2,293.40698,4.1410,11,291.63,0,143.78931,1,<I>N</I>-[(4-hydroxy-3-methoxy-phenyl)methyl]nonanamide
"InChI=1S/C21H26O2/c1-3-20-11-9-17-16-8-6-15(22)13-14(16)5-7-18(17)19(20)10-12-21(20,23)4-2/h2,10,12-13,16-19,23H,3,5-9,11H2,1H3",SIGSPDASOTUPFS-UHFFFAOYSA-N,OC1(C=CC2C3C(C4C(=CC(=O)CC4)CC3)CCC12CC)C#C,C8H14ClN5,310.43698,2.9780,2,285.38,0,104.78389,1,"13-ethyl-17-ethynyl-17-hydroxy-1,2,6,7,8,9,10,11,12,14-decahydrocyclopenta[a]phenanthren-3-one"
"InChI=1S/C22H29FO4/c1-12-8-16-15-5-4-13-9-14(25)6-7-21(13,3)22(15,23)18(27)10-20(16,2)19(12)17(26)11-24/h6-7,9,12,15-16,18-19,24,27H,4-5,8,10-11H2,1-3H3",VWVSBHGCDBMOOT-UHFFFAOYSA-N,FC12C(C3CC(C)C(C(=O)CO)C3(CC1O)C)CCC1=CC(=O)C=CC12C,C8H8O3,376.46799,2.6030,2,298.50,0,175.31194,0,"9-fluoro-11-hydroxy-17-(2-hydroxyacetyl)-10,13,16-trimethyl-7,8,11,12,14,15,16,17-octahydro-6<I>H</I>-cyclopenta[a]phenanthren-3-one"
"InChI=1S/C23H32O4/c1-14(24)27-13-21(26)20-7-6-18-17-5-4-15-12-16(25)8-10-22(15,2)19(17)9-11-23(18,20)3/h12,17-20H,4-11,13H2,1-3H3",VPGRYOFKCNULNK-UHFFFAOYSA-N,O=C1CCC2(C3C(C4CCC(C(=O)COC(=O)C)C4(CC3)C)CCC2=C1)C,C8H9NO2,372.505,3.0700,4,323.25,0,136.78819,1,"[2-(10,13-dimethyl-3-oxo-1,2,6,7,8,9,11,12,14,15,16,17-dodecahydrocyclopenta[a]phenanthren-17-yl)-2-oxo-ethyl] acetate"
"InChI=1S/C21H36N7O16P3/c1-4-23-12(29)5-6-24-19(32)16(31)21(2,3)8-41-47(38,39)44-46(36,37)40-7-11-15(43-45(33,34)35)14(30)20(42-11)28-10-27-13-17(22)25-9-26-18(13)28/h9-11,14-16,20,30-31H,4-8H2,1-3H3,( H,23,29)(H,24,32)(H,36,37)(H,38,39)(H2,22,25,26)(H2,33,",ILWZMFJBPIYQKW-UHFFFAOYSA-N,P(OCC1OC(n2c3ncnc(N)c3nc2)C(O)C1OP(O)(O)=O)(OP(OCC(C(O)C(=O)NCCC(=O)NCC)(C)C)(O)=O)(O)=O,C9H10O3,735.474,-5.2229,19,514.00,3,539.91498,0,"[[5-(6-aminopurin-9-yl)-4-hydroxy-3-phosphonooxy-tetrahydrofuran-2-yl]methoxy-hydroxy-phosphoryl] [4-[[3-(ethylamino)-3-oxo-propyl]amino]-3-hydroxy-2,2-dimethyl-4-oxo-butyl] hydrogen phosphate"
"InChI=1S/C22H29FO5/c1-12-8-16-15-5-4-13-9-14(25)6-7-19(13,2)21(15,23)17(26)10-20(16,3)22(12,28)18(27)11-24/h6-7,9,12,15-17,24,26,28H,4-5,8,10-11H2,1-3H3",UREBDLICKHMUKA-UHFFFAOYSA-N,FC12C(C3CC(C)C(O)(C(=O)CO)C3(CC1O)C)CCC1=CC(=O)C=CC12C,C9H8O2,392.46698,2.1510,2,299.63,0,186.2944,1,"9-fluoro-11,17-dihydroxy-17-(2-hydroxyacetyl)-10,13,16-trimethyl-6,7,8,11,12,14,15,16-octahydrocyclopenta[a]phenanthren-3-one"
"InChI=1S/C29H33FO9S/c1-16-11-22-21-8-7-18-13-19(31)9-10-26(18,2)28(21,30)23(32)14-27(22,3)29(16,35)24(33)15-39-25(34)17-5-4-6-20(12-17)40(36,37)38/h4-6,9-10,12-13,16,21-23,32,35H,7-8,11,14-15H2,1-3H3, (H,36,37,38)",TWQWRHIQRAZHPR-UHFFFAOYSA-N,S(O)(=O)(=O)c1cc(ccc1)C(OCC(=O)C1(O)C2(CC(O)C3(F)C(C2CC1C)CCC1=CC(=O)C=CC13C)C)=O,C10H11ClO3,576.638,3.3360,6,436.50,1,293.65598,1,"3-[2-(9-fluoro-11,17-dihydroxy-10,13,16-trimethyl-3-oxo-6,7,8,11,12,14,15,16-octahydrocyclopenta[a]phenanthren-17-yl)-2-oxo-ethoxy]carbonylbenzenesulfonic acid"
"InChI=1S/C38H59FO6/c1-5-6-7-8-9-10-11-12-13-14-15-16-17-18-34(43)45-26-33(42)38(44)27(2)23-31-30-20-19-28-24-29(40)21-22-35(28,3)37(30,39)32(41)25-36(31,38)4/h21-22,24,27,30-32,41,44H,5-20,23,25-26H2, 1-4H3",WDPYZTKOEFDTCU-UHFFFAOYSA-N,FC12C(C3CC(C)C(O)(C(=O)COC(=O)CCCCCCCCCCCCCCC)C3(CC1O)C)CCC1=CC(=O)C=CC12C,C10H11N3O3S,630.88196,8.9610,18,551.88,2,158.30972,0,"[2-(9-fluoro-11,17-dihydroxy-10,13,16-trimethyl-3-oxo-6,7,8,11,12,14,15,16-octahydrocyclopenta[a]phenanthren-17-yl)-2-oxo-ethyl] hexadecanoate"
"InChI=1S/C22H30FO8P/c1-12-8-16-15-5-4-13-9-14(24)6-7-19(13,2)21(15,23)17(25)10-20(16,3)22(12,27)18(26)11-31-32(28,29)30/h6-7,9,12,15-17,25,27H,4-5,8,10-11H2,1-3H3,(H2,28,29,30)/p-2",VQODGRNSFPNSQE-UHFFFAOYSA-L,P(OCC(=O)C1(O)C2(CC(O)C3(F)C(C2CC1C)CCC1=CC(=O)C=CC13C)C)(=O)([O-])[O-],C10H12O3,470.42999,1.1640,4,332.38,0,265.78781,1,"[2-(9-fluoro-11,17-dihydroxy-10,13,16-trimethyl-3-oxo-6,7,8,11,12,14,15,16-octahydrocyclopenta[a]phenanthren-17-yl)-2-oxo-ethyl] phosphate"
"InChI=1S/C6H12F2N2O2/c7-4(8)6(10,5(11)12)2-1-3-9/h4H,1-3,9-10H2,(H,11,12)",VLCYCQAOQCDTCN-UHFFFAOYSA-N,FC(F)C(N)(CCCN)C(O)=O,C13H10N2O3S,182.17,-2.9498,5,131.50,0,254.41762,1,"2,5-diamino-2-(difluoromethyl)pentanoic acid"
"InChI=1S/C19H30N2O/c1-2-3-4-5-6-7-8-9-11-20-17-13-16(15-22)18-10-12-21-19(18)14-17/h10,12-14,20-22H,2-9,11,15H2,1H3",CHLOVPDKABYEDC-UHFFFAOYSA-N,OCc1cc(NCCCCCCCCCC)cc2[nH]ccc12,C13H18O2,302.46201,5.3560,11,308.50,1,125.45594,1,[6-(decylamino)-1<I>H</I>-indol-4-yl]methanol
"InChI=1S/C20H34O2/c1-2-3-4-5-6-7-8-9-10-11-12-13-14-15-16-17-18-19-20(21)22/h6-7,9-10,12-13H,2-5,8,11,14-19H2,1H3,(H,21,22)",HOBAELRKJCKHQD-UHFFFAOYSA-N,OC(=O)CCCCCCC=CCC=CCC=CCCCCC,C13H9Cl3N2O,306.48999,5.7740,15,327.38,1,163.12581,0,"(8<I>E</I>,11<I>E</I>,14<I>E</I>)-icosa-8,11,14-trienoic acid"
"InChI=1S/C27H26FN3OS/c1-19-24(26(32)31-17-18-33-27(31)29-19)13-16-30-14-11-22(12-15-30)25(20-5-3-2-4-6-20)21-7-9-23(28)10-8-21/h2-10,17-18H,11-16H2,1H3",MFVJXLPANKSLLD-UHFFFAOYSA-N,S1C=CN2C1=NC(C)=C(CCN1CCC(CC1)=C(c1ccc(F)cc1)c1ccccc1)C2=O,C14H12O3,459.58899,4.6620,5,426.13,1,121.19162,1,"6-[2-[4-[(4-fluorophenyl)-phenyl-methylene]-1-piperidyl]ethyl]-7-methyl-thiazolo[3,2-a]pyrimidin-5-one"
"InChI=1S/C20H36O5/c1-2-3-4-5-6-7-8-9-10-11-12-15-24-20(23)17-13-14-19(22)25-18(17)16-21/h17-18,21H,2-16H2,1H3",ZHKLVTNDBWGJNK-UHFFFAOYSA-N,O1C(CO)C(CCC1=O)C(OCCCCCCCCCCCCC)=O,C15H12N2O,356.50299,4.7530,15,340.88,0,161.94417,0,tridecyl 2-(hydroxymethyl)-6-oxo-tetrahydropyran-3-carboxylate
"InChI=1S/C16H13ClN2O/c1-19-14-8-7-12(17)9-13(14)16(18-10-15(19)20)11-5-3-2-4-6-11/h2-9H,10H2,1H3",AAOVKJBEBIDNHE-UHFFFAOYSA-N,Clc1cc2c(N(C)C(=O)CN=C2c2ccccc2)cc1,C7H6O3,284.746,3.1090,1,263.25,0,82.261833,1,"7-chloro-1-methyl-5-phenyl-3<I>H</I>-1,4-benzodiazepin-2-one"
"InChI=1S/C12H21N2O3PS/c1-6-15-18(19,16-7-2)17-11-8-10(5)13-12(14-11)9(3)4/h8-9H,6-7H2,1-5H3",FHIVAFMUCKRCQO-UHFFFAOYSA-N,S=P(Oc1nc(nc(c1)C)C(C)C)(OCC)OCC,C7H8N4O2,304.35098,2.6330,7,255.75,0,82.78434,0,diethoxy-(2-isopropyl-6-methyl-pyrimidin-4-yl)oxy-thioxo-&lambda;<sup>5</sup>-phosphane
"InChI=1S/C18H22N2O6/c1-3-25-17(23)19-13-11(9-5-6-9)16(22)14(20-18(24)26-4-2)12(15(13)21)10-7-8-10/h9-10H,3-8H2,1-2H3,(H,19,23)(H,20,24)",FMFBZYJDTUPLBV-UHFFFAOYSA-N,O=C1C(=C(NC(OCC)=O)C(=O)C(=C1NC(OCC)=O)C1CC1)C1CC1,C8H10N4O2,362.38199,1.2500,10,323.13,0,210.03362,1,"ethyl <I>N</I>-[2,5-dicyclopropyl-4-(ethoxycarbonylamino)-3,6-dioxo-cyclohexa-1,4-dien-1-yl]carbamate"
"InChI=1S/C8H7ClN2O2S/c1-5-10-7-3-2-6(9)4-8(7)14(12,13)11-5/h2-4H,1H3,(H,10,11)",GDLBFKVLRPITMI-UHFFFAOYSA-N,Clc1cc2S(=O)(=O)NC(=Nc2cc1)C,C8H14ClN5,230.675,1.3420,0,173.13,0,116.36318,0,"7-chloro-3-methyl-2<I>H</I>-1&lambda;<sup>6</sup>,2,4-benzothiadiazine 1,1-dioxide"
"InChI=1S/C18H37N5O8/c19-4-6-1-2-7(20)17(28-6)30-15-8(21)3-9(22)16(14(15)27)31-18-13(26)11(23)12(25)10(5-24)29-18/h6-18,24-27H,1-5,19-23H2",JJCQSGDBDPYCEO-UHFFFAOYSA-N,O1C(CO)C(O)C(N)C(O)C1OC1C(O)C(OC2OC(CCC2N)CN)C(N)CC1N,C8H9NO2,451.521,-5.3970,6,343.88,2,374.63312,1,"4-amino-2-[4,6-diamino-3-[3-amino-6-(aminomethyl)tetrahydropyran-2-yl]oxy-2-hydroxy-cyclohexoxy]-6-(hydroxymethyl)tetrahydropyran-3,5-diol"
"InChI=1S/C14H8O5/c15-13(16)9-5-1-3-7-8-4-2-6-10(14(17)18)12(8)19-11(7)9/h1-6H,(H,15,16)(H,17,18)",HBBGSNOHAGNQRQ-UHFFFAOYSA-N,o1c2c(c3c1c(ccc3)C(O)=O)cccc2C(O)=O,C9H10O3,256.21298,2.9580,2,222.63,0,179.42885,0,"dibenzofuran-4,6-dicarboxylic acid"
InChI=1S/C12H8S/c1-3-7-11-9(5-1)10-6-2-4-8-12(10)13-11/h1-8H,IYYZUPMFVPLQIF-UHFFFAOYSA-N,s1c2c(c3c1cccc3)cccc2,C9H8O2,184.26199,4.4230,0,175.75,0,0,1,dibenzothiophene
InChI=1S/CH2Br2/c2-1-3/h1H2,FJBFPHVGVWTDIP-UHFFFAOYSA-N,BrCBr,C10H11ClO3,173.83499,1.7164,0,74.38,0,202.54259,0,dibromomethane
"InChI=1S/C20H29N3O2/c1-4-7-14-25-19-15-17(16-10-8-9-11-18(16)22-19)20(24)21-12-13-23(5-2)6-3/h8-11,15H,4-7,12-14H2,1-3H3,(H,21,24)",PUFQVTATUTYEAL-UHFFFAOYSA-N,O(CCCC)c1nc2c(cccc2)c(c1)C(=O)NCCN(CC)CC,C10H11N3O3S,343.47098,3.7590,11,346.75,0,92.113541,1,2-butoxy-<I>N</I>-[2-(diethylamino)ethyl]quinoline-4-carboxamide
"InChI=1S/C17H24N5O9P/c1-3-5-8(23)19-17-20-13-10(14(25)21-17)18-7-22(13)15-11(28-9(24)6-4-2)12-16(29-15)31-32(26,27)30-12/h7,10-13,15-16H,3-6H2,1-2H3,(H,26,27)(H2,19,20,21,23,25)/p-1",SKLBNWRKZDLESA-UHFFFAOYSA-M,P1(OC2C(OC(N3C4N=C(NC(=O)C4N=C3)NC(=O)CCC)C2OC(=O)CCC)O1)(=O)[O-],C10H12O3,472.371,-1.0440,9,368.63,1,324.95764,1,"[5-[2-(butanoylamino)-6-oxo-4,5-dihydro-1<I>H</I>-purin-9-yl]-2-oxido-2-oxo-3<I>a</I>,5,6,6<I>a</I>-tetrahydrofuro[2,3-d][1,3,2]dioxaphosphol-6-yl] butanoate"
"InChI=1S/C17H24N5O9P/c1-3-5-8(23)19-17-20-13-10(14(25)21-17)18-7-22(13)15-11(28-9(24)6-4-2)12-16(29-15)31-32(26,27)30-12/h7,10-13,15-16H,3-6H2,1-2H3,(H,26,27)(H2,19,20,21,23,25)",SKLBNWRKZDLESA-UHFFFAOYSA-N,P1(OC2C(OC(N3C4N=C(NC(=O)C4N=C3)NC(=O)CCC)C2OC(=O)CCC)O1)(O)=O,C12H7Cl3O2,473.379,-0.9940,9,368.63,1,321.74124,0,"[5-[2-(butanoylamino)-6-oxo-4,5-dihydro-1<I>H</I>-purin-9-yl]-2-hydroxy-2-oxo-3<I>a</I>,5,6,6<I>a</I>-tetrahydrofuro[2,3-d][1,3,2]dioxaphosphol-6-yl] butanoate"
"InChI=1S/C18H24N5O8P/c1-3-5-11(24)22-16-13-17(20-8-19-16)23(9-21-13)18-15(30-12(25)6-4-2)14-10(29-18)7-28-32(26,27)31-14/h8-10,14-15,18H,3-7H2,1-2H3,(H,26,27)(H,19,20,22,24)/p-1",CJGYSWNGNKCJSB-UHFFFAOYSA-M,P1(OC2C(OC(n3c4ncnc(NC(=O)CCC)c4nc3)C2OC(=O)CCC)CO1)(=O)[O-],C13H10N2O3S,468.383,-0.0849,9,379.13,1,283.96747,1,"[6-[6-(butanoylamino)purin-9-yl]-2-oxido-2-oxo-4<I>a</I>,6,7,7<I>a</I>-tetrahydro-4<I>H</I>-furo[3,2-d][1,3,2]dioxaphosphinin-7-yl] butanoate"