InChI,Key,smiles,Formula,Weight,logP(o/w),b_rotN,vol,lip_violation,ASA_P,Natural,ChemicalName
"InChI=1S/C32H41N3O4/c1-21(2)16-27(34-32(38)25-14-9-15-26(33)18-25)19-29(36)28(17-24-12-6-5-7-13-24)35-30(37)20-39-31-22(3)10-8-11-23(31)4/h5-15,18,21,27-29,36H,16-17,19-20,33H2,1-4H3,(H,34,38)(H,35,37 )",WQUBEIMCFHCJCO-UHFFFAOYSA-N,O(CC(=O)NC(Cc1ccccc1)C(O)CC(NC(=O)c1cc(N)ccc1)CC(C)C)c1c(cccc1C)C,C10H11N3O3S,531.69696,5.6030,15,514.38,1,148.2487,1,"3-amino-<I>N</I>-[4-[[2-(2,6-dimethylphenoxy)acetyl]amino]-3-hydroxy-1-isobutyl-5-phenyl-pentyl]benzamide"
"InChI=1S/C7H9N3/c8-6-3-1-5(2-4-6)7(9)10/h1-4H,8H2,(H3,9,10)",WPANETAWYGDRLL-UHFFFAOYSA-N,Nc1ccc(cc1)C(N)=N,C10H12O3,135.17,0.6210,1,130.25,0,179.49008,0,4-aminobenzamidine
"InChI=1S/C4H12NO3P/c5-3-1-2-4-9(6,7)8/h1-5H2,(H2,6,7,8)",IDPXFPYGZRMMKZ-UHFFFAOYSA-N,P(O)(O)(=O)CCCCN,C12H7Cl3O2,153.118,-1.4650,4,112.00,0,197.99677,1,4-aminobutylphosphonic acid
"InChI=1S/C5H6N2/c6-5-1-3-7-4-2-5/h1-4H,(H2,6,7)",NUKYPUAOHBNCPY-UHFFFAOYSA-N,n1ccc(N)cc1,C13H10N2O3S,94.116997,0.0020,0,97.38,0,79.488548,1,pyridin-4-amine
"InChI=1S/C21H28O4/c1-12(22)25-19-16-5-4-13-14-6-7-18(24)21(14,3)10-8-15(13)20(16,2)11-9-17(19)23/h13-15H,4-11H2,1-3H3",LRXSFNGKRCOHRS-UHFFFAOYSA-N,O(C(=O)C)C1=C2CCC3C4CCC(=O)C4(CCC3C2(CCC1=O)C)C,C13H18O2,344.45099,2.5680,2,289.38,0,103.1885,0,"(10,13-dimethyl-3,17-dioxo-2,6,7,8,9,11,12,14,15,16-decahydro-1<I>H</I>-cyclopenta[a]phenanthren-4-yl) acetate"
"InChI=1S/C20H28O3/c1-19-11-9-16(21)18(23-3)15(19)5-4-12-13-6-7-17(22)20(13,2)10-8-14(12)19/h12-14H,4-11H2,1-3H3",JYMVNNNTLDUEBG-UHFFFAOYSA-N,O(C)C1=C2CCC3C4CCC(=O)C4(CCC3C2(CCC1=O)C)C,C13H9Cl3N2O,316.44098,2.5910,1,271.88,0,104.34104,1,"4-methoxy-10,13-dimethyl-2,6,7,8,9,11,12,14,15,16-decahydro-1<I>H</I>-cyclopenta[a]phenanthrene-3,17-dione"
"InChI=1S/C7H5O2.ClH.Hg/c8-7(9)6-4-2-1-3-5-6;;/h2-5H,(H,8,9);1H;/q;;+1/p-1",YFZOUMNUDGGHIW-UHFFFAOYSA-M,[Hg](Cl)c1ccc(cc1)C(O)=O,C14H12O3,357.16,2.1750,2,146.50,0,212.07281,0,(4-carboxyphenyl)-chloro-mercury
"InChI=1S/C6H5ClO2/c7-5-2-1-4(8)3-6(5)9/h1-3,8-9H",JQVAPEJNIZULEK-UHFFFAOYSA-N,Clc1ccc(O)cc1O,C15H12N2O,144.55699,1.9170,0,117.50,0,89.695435,1,"4-chlorobenzene-1,3-diol"
"InChI=1S/C11H8N2/c1-8-11(6-12)10-5-3-2-4-9(10)7-13-8/h2-5,7H,1H3",SZWLGBJCLZDZBY-UHFFFAOYSA-N,n1cc2c(cccc2)c(C#N)c1C,C4H4KNO4S,168.19899,1.8100,1,175.00,0,73.085609,1,3-methylisoquinoline-4-carbonitrile
"InChI=1S/C21H26NO2/c1-22(2)15-13-19(14-16-22)24-21(23)20(17-9-5-3-6-10-17)18-11-7-4-8-12-18/h3-12,19-20H,13-16H2,1-2H3/q+1",HYJRTXSYDAFGJK-UHFFFAOYSA-N,O(C(=O)C(c1ccccc1)c1ccccc1)C1CC[N+](CC1)(C)C,C7H6O3,324.444,3.7890,5,317.75,0,61.781849,0,"(1,1-dimethylpiperidin-1-ium-4-yl) 2,2-diphenylacetate"
"InChI=1S/C13H23NO8/c1-4-7(10(18)12(20)13(21)22-4)14-6-2-5(3-15)8(16)11(19)9(6)17/h2,4,6-21H,3H2,1H3",RBZIIHWPZWOIDU-UHFFFAOYSA-N,O1C(C)C(NC2C=C(CO)C(O)C(O)C2O)C(O)C(O)C1O,C7H8N4O2,321.32599,-3.6760,3,236.63,1,281.03619,1,"6-methyl-5-[[4,5,6-trihydroxy-3-(hydroxymethyl)cyclohex-2-en-1-yl]amino]tetrahydropyran-2,3,4-triol"
"InChI=1S/C6H10O7/c7-2(4(9)6(12)13)1-3(8)5(10)11/h2-4,7-9H,1H2,(H,10,11)(H,12,13)/p-2",WZLURCXZSPTANB-UHFFFAOYSA-L,OC(C(O)C(=O)[O-])CC(O)C(=O)[O-],C8H10N4O2,192.123,-1.7350,5,138.75,0,262.43912,0,"2,3,5-trihydroxyhexanedioate"
"InChI=1S/C6H10O7/c7-2(4(9)6(12)13)1-3(8)5(10)11/h2-4,7-9H,1H2,(H,10,11)(H,12,13)",WZLURCXZSPTANB-UHFFFAOYSA-N,OC(C(O)C(O)=O)CC(O)C(O)=O,C8H14ClN5,194.13899,-1.9770,5,138.75,0,288.52597,1,"2,3,5-trihydroxyhexanedioic acid"
"InChI=1S/C9H10O4/c1-13-8-4-6(5-9(11)12)2-3-7(8)10/h2-4,10H,5H2,1H3,(H,11,12)",QRMZSPFSDQBLIX-UHFFFAOYSA-N,O(C)c1cc(ccc1O)CC(O)=O,C8H8O3,182.175,1.3540,3,163.38,0,177.02817,1,2-(4-hydroxy-3-methoxy-phenyl)acetic acid
"InChI=1S/C19H18O4/c1-3-14(12-7-5-4-6-8-12)17-18(20)15-10-9-13(22-2)11-16(15)23-19(17)21/h4-11,14,21H,3H2,1-2H3",IFVIFLXEXLEDAV-UHFFFAOYSA-N,O1c2c(ccc(OC)c2)C(=O)C(C(CC)c2ccccc2)=C1O,C8H9NO2,310.349,4.1150,4,290.13,0,87.230309,0,2-hydroxy-7-methoxy-3-(1-phenylpropyl)chromen-4-one
"InChI=1S/C6H6O7/c7-3(8)1-2(5(10)11)4(9)6(12)13/h1,4,9H,(H,7,8)(H,10,11)(H,12,13)/p-3",WUUVSJBKHXDKBS-UHFFFAOYSA-K,OC(C(=CC(=O)[O-])C(=O)[O-])C(=O)[O-],C9H10O3,187.08299,-0.8430,4,137.38,0,288.38437,1,"(<I>Z</I>)-3-hydroxyprop-1-ene-1,2,3-tricarboxylate"
"InChI=1S/C6H6O7/c7-3(8)1-2(5(10)11)4(9)6(12)13/h1,4,9H,(H,7,8)(H,10,11)(H,12,13)",WUUVSJBKHXDKBS-UHFFFAOYSA-N,OC(C(=CC(O)=O)C(O)=O)C(O)=O,C9H8O2,190.10699,-1.2060,4,137.38,0,297.67761,0,"(<I>Z</I>)-3-hydroxyprop-1-ene-1,2,3-tricarboxylic acid"
"InChI=1S/C7H8N2O2/c8-9-7(11)5-1-3-6(10)4-2-5/h1-4,10H,8H2,(H,9,11)",ZMZGIVVRBMFZSG-UHFFFAOYSA-N,Oc1ccc(cc1)C(=O)NN,C10H11ClO3,152.153,0.1270,2,136.00,0,179.13919,1,4-hydroxybenzohydrazide
"InChI=1S/C18H24O3/c1-18-9-8-11-10-4-6-15(19)17(21)13(10)3-2-12(11)14(18)5-7-16(18)20/h4,6,11-12,14,16,19-21H,2-3,5,7-9H2,1H3",QOZFCKXEVSGWGS-UHFFFAOYSA-N,OC1CCC2C3C(CCC12C)c1c(CC3)c(O)c(O)cc1,C10H11N3O3S,288.38699,3.5020,0,254.13,0,119.71263,1,"13-methyl-6,7,8,9,11,12,14,15,16,17-decahydrocyclopenta[a]phenanthrene-3,4,17-triol"
"InChI=1S/C26H33NO2/c1-19(11-16-24-21(3)10-7-17-26(24,4)5)8-6-9-20(2)18-25(29)27-22-12-14-23(28)15-13-22/h6,8-9,11-16,18,28H,7,10,17H2,1-5H3,(H,27,29)",AKJHMTWEGVYYSE-UHFFFAOYSA-N,Oc1ccc(NC(=O)C=C(C=CC=C(C=CC=2C(CCCC=2C)(C)C)C)C)cc1,C10H12O3,391.55499,5.5970,7,394.38,1,91.605347,0,"(2<I>E</I>,4<I>E</I>,6<I>E</I>,8<I>E</I>)-<I>N</I>-(4-hydroxyphenyl)-3,7-dimethyl-9-(2,6,6-trimethylcyclohexen-1-yl)nona-2,4,6,8-tetraenamide"
"InChI=1S/C4H6N2O/c7-2-4-1-5-3-6-4/h1,3,7H,2H2,(H,5,6)",QDYTUZCWBJRHKK-UHFFFAOYSA-N,OCc1nc[nH]c1,C12H7Cl3O2,98.104996,-1.0850,1,89.38,0,133.10391,1,1<I>H</I>-imidazol-4-ylmethanol
"InChI=1S/C9H7IN2S/c10-6-2-1-3-7-5(6)4-8(13-7)9(11)12/h1-4H,(H3,11,12)/p+1",YERQOXAYAFWFEJ-UHFFFAOYSA-O,Ic1c2cc(sc2ccc1)C(=[NH2+])N,C13H10N2O3S,303.147,3.2690,1,185.88,0,124.86547,0,[amino-(4-iodobenzothiophen-2-yl)methylene]ammonium
"InChI=1S/C9H7IN2S/c10-6-2-1-3-7-5(6)4-8(13-7)9(11)12/h1-4H,(H3,11,12)",YERQOXAYAFWFEJ-UHFFFAOYSA-N,Ic1c2cc(sc2ccc1)C(N)=N,C13H18O2,302.13901,3.4820,1,189.38,0,117.84909,1,4-iodobenzothiophene-2-carboxamidine
"InChI=1S/C9H13NO2/c1-12-9-3-2-7(4-5-10)6-8(9)11/h2-3,6,11H,4-5,10H2,1H3",WJXQFVMTIGJBFX-UHFFFAOYSA-N,O(C)c1ccc(cc1O)CCN,C13H9Cl3N2O,167.20799,0.9330,3,160.13,0,143.11086,1,5-(2-aminoethyl)-2-methoxy-phenol
InChI=1S/C9H5NO3/c11-9-5-4-6-7(9)2-1-3-8(6)10(12)13/h1-5H,UUNZJPCKMDLQPO-UHFFFAOYSA-N,O=C1C=Cc2c1cccc2[N+](=O)[O-],C15H12N2O,175.14299,2.0280,1,158.38,0,126.82552,1,4-nitroinden-1-one
"InChI=1S/C15H24O/c1-2-3-4-5-6-7-8-9-14-10-12-15(16)13-11-14/h10-13,16H,2-9H2,1H3",IGFHQQFPSIBGKE-UHFFFAOYSA-N,Oc1ccc(cc1)CCCCCCCCC,C4H4KNO4S,220.35599,5.4650,8,234.38,0,48.894924,0,4-nonylphenol
"InChI=1S/C14H23NO10/c1-6(17)15-10-9(24-7(2)18)4-14(23-3,13(21)22)25-12(10)11(20)8(19)5-16/h8-12,16,19-20H,4-5H2,1-3H3,(H,15,17)(H,21,22)",LWHOUUJWFGBXPR-UHFFFAOYSA-N,O1C(C(O)C(O)CO)C(NC(=O)C)C(OC(=O)C)CC1(OC)C(O)=O,C7H6O3,365.33499,-1.8070,9,281.63,1,269.9527,1,"5-acetamido-4-acetoxy-2-methoxy-6-(1,2,3-trihydroxypropyl)tetrahydropyran-2-carboxylic acid"
"InChI=1S/C13H26O3/c1-2-3-4-5-6-7-8-9-11-16-12-10-13(14)15/h2-12H2,1H3,(H,14,15)",ZYLHDTBQHXSLEZ-UHFFFAOYSA-N,O(CCCCCCCCCC)CCC(O)=O,C7H8N4O2,230.34799,3.8500,12,230.75,0,112.83616,1,3-decoxypropanoic acid
"InChI=1S/C10H16O5/c11-8(6-7-10(14)15)4-2-1-3-5-9(12)13/h1-7H2,(H,12,13)(H,14,15)",XTQIBFVBYWIHIP-UHFFFAOYSA-N,OC(=O)CCC(=O)CCCCCC(O)=O,C8H10N4O2,216.233,0.5330,9,189.88,0,220.94498,0,4-oxodecanedioic acid
InChI=1S/C9H5N3O2/c10-6-8-9(11-14-12(8)13)7-4-2-1-3-5-7/h1-5H,PMYJGTWUVVVOFO-UHFFFAOYSA-N,o1[n+]([O-])c(C#N)c(n1)-c1ccccc1,C8H14ClN5,187.15799,1.1860,2,170.75,0,147.79367,1,"2-oxido-4-phenyl-1,2,5-oxadiazol-2-ium-3-carbonitrile"
"InChI=1S/C13H14O8P2/c14-22(15,16)20-12-5-1-10(2-6-12)9-11-3-7-13(8-4-11)21-23(17,18)19/h1-8H,9H2,(H2,14,15,16)(H2,17,18,19)",LGSCVLKUKMBYNC-UHFFFAOYSA-N,P(Oc1ccc(cc1)Cc1ccc(OP(O)(O)=O)cc1)(O)(O)=O,C8H8O3,360.19501,0.8680,6,265.88,0,303.24237,0,[4-[(4-phosphonooxyphenyl)methyl]phenyl] dihydrogen phosphate
"InChI=1S/C11H17N3O3S/c12-7-1-2-8-14-11(15)9-3-5-10(6-4-9)18(13,16)17/h3-6H,1-2,7-8,12H2,(H,14,15)(H2,13,16,17)",ZDYFRIZTYRFPJC-UHFFFAOYSA-N,S(=O)(=O)(N)c1ccc(cc1)C(=O)NCCCCN,C8H9NO2,271.341,-0.3990,7,225.13,0,249.20097,1,<I>N</I>-(4-aminobutyl)-4-sulfamoyl-benzamide
"InChI=1S/C12H19N3O3S2/c13-20(17,18)11-5-3-10(4-6-11)12(16)15-8-2-1-7-14-9-19/h3-6,14,19H,1-2,7-9H2,(H,15,16)(H2,13,17,18)",XLYYIFIRODREFK-UHFFFAOYSA-N,S(=O)(=O)(N)c1ccc(cc1)C(=O)NCCCCNCS,C9H10O3,317.43399,0.6870,9,260.13,0,238.72144,1,4-sulfamoyl-<I>N</I>-[4-(sulfanylmethylamino)butyl]benzamide
"InChI=1S/C13H16N6O4/c14-10-6-11(16-3-15-10)19(4-17-6)13-8(21)7(20)9(23-13)12(22)18-5-1-2-5/h3-5,7-9,13,20-21H,1-2H2,(H,18,22)(H2,14,15,16)",MYNRELUCFAQMFC-UHFFFAOYSA-N,O1C(C(=O)NC2CC2)C(O)C(O)C1n1c2ncnc(N)c2nc1,C9H8O2,320.30899,-1.8449,4,268.25,0,327.74051,0,"5-(6-aminopurin-9-yl)-<I>N</I>-cyclopropyl-3,4-dihydroxy-tetrahydrofuran-2-carboxamide"
"InChI=1S/C27H30O12/c1-33-15-4-3-11(6-16(15)34-2)19-13-7-17-25(37-10-36-17)24(14(13)5-12-9-35-26(32)20(12)19)39-27-23(31)22(30)21(29)18(8-28)38-27/h3-4,6-7,12,18-23,27-31H,5,8-10H2,1-2H3",SLCWJDCAMRKZIW-UHFFFAOYSA-N,O1C(CO)C(O)C(O)C(O)C1Oc1c2c(cc3OCOc13)C(C1C(C2)COC1=O)c1cc(OC)c(OC)cc1,C10H11ClO3,546.52496,0.1937,6,446.38,2,314.15454,1,"9-(3,4-dimethoxyphenyl)-4-[3,4,5-trihydroxy-6-(hydroxymethyl)tetrahydropyran-2-yl]oxy-5<I>a</I>,6,8<I>a</I>,9-tetrahydro-5<I>H</I>-isobenzofuro[5,6-f][1,3]benzodioxol-8-one"
"InChI=1S/C12H18N6O3S/c13-1-2-22-3-6-8(19)9(20)12(21-6)18-5-17-7-10(14)15-4-16-11(7)18/h4-6,8-9,12,19-20H,1-3,13H2,(H2,14,15,16)",APAPOJUCRZTCHD-UHFFFAOYSA-N,S(CC1OC(n2c3ncnc(N)c3nc2)C(O)C1O)CCN,C10H11N3O3S,326.38098,-1.9869,5,262.63,1,356.4707,0,"2-(2-aminoethylsulfanylmethyl)-5-(6-aminopurin-9-yl)tetrahydrofuran-3,4-diol"
"InChI=1S/C10H16N5O13P3S/c11-10-13-7-4(8(18)14-10)12-2-15(7)9-6(17)5(16)3(26-9)1-25-29(19,20)27-30(21,22)28-31(23,24)32/h2-3,5-6,9,16-17H,1H2,(H,19,20)(H,21,22)(H2,23,24,32)(H3,11,13,14,18)",XOFLBQFBSOEHOG-UHFFFAOYSA-N,S=P(OP(OP(OCC1OC(n2c3NC(=NC(=O)c3nc2)N)C(O)C1O)(O)=O)(O)=O)(O)O,C10H12O3,539.24799,-3.6710,8,325.13,3,562.52673,1,"[[5-(2-amino-6-oxo-3<I>H</I>-purin-9-yl)-3,4-dihydroxy-tetrahydrofuran-2-yl]methoxy-hydroxy-phosphoryl] dihydroxyphosphinothioyl hydrogen phosphate"
"InChI=1S/C15H22N8O8S/c16-6(1-2-8(17)24)14(27)22-32(28,29)30-3-7-10(25)11(26)15(31-7)23-5-21-9-12(18)19-4-20-13(9)23/h4-7,10-11,15,25-26H,1-3,16H2,(H2,17,24)(H,22,27)(H2,18,19,20)",KXWKSWRGZLZHEF-UHFFFAOYSA-N,S(OCC1OC(n2c3ncnc(N)c3nc2)C(O)C1O)(=O)(=O)NC(=O)C(N)CCC(=O)N,C12H7Cl3O2,474.45499,-4.2919,10,358.25,2,473.77954,1,"[5-(6-aminopurin-9-yl)-3,4-dihydroxy-tetrahydrofuran-2-yl]methyl <I>N</I>-(2,5-diamino-5-oxo-pentanoyl)sulfamate"
"InChI=1S/C20H30O3/c1-2-3-4-5-6-7-8-9-10-11-12-13-14-16-19(21)17-15-18-20(22)23/h3-4,6-7,9-10,12-14,16,19,21H,2,5,8,11,15,17-18H2,1H3,(H,22,23)",FTAGQROYQYQRHF-UHFFFAOYSA-N,OC(CCCC(O)=O)C=CC=CCC=CCC=CCC=CCC,C13H10N2O3S,318.457,4.2790,13,333.88,0,235.10567,0,"(6<I>E</I>,8<I>E</I>,11<I>E</I>,14<I>E</I>,17<I>E</I>)-5-hydroxyicosa-6,8,11,14,17-pentaenoic acid"
"InChI=1S/C20H30O2/c1-2-3-4-5-6-7-8-9-10-11-12-13-14-16-19-17-15-18-20(21)22-19/h6-7,9-10,12-14,16,19H,2-5,8,11,15,17-18H2,1H3",QZMAEYDIHWEEAF-UHFFFAOYSA-N,O1C(CCCC1=O)C=CC=CCC=CCC=CCCCCC,C13H18O2,302.45801,5.4790,10,319.25,1,129.07283,1,"6-[(1<I>E</I>,3<I>E</I>,6<I>E</I>,9<I>E</I>)-pentadeca-1,3,6,9-tetraenyl]tetrahydropyran-2-one"
"InChI=1S/C20H34O3/c1-2-3-4-5-6-7-8-9-10-11-12-13-14-16-19(21)17-15-18-20(22)23/h9-10,12-14,16,19,21H,2-8,11,15,17-18H2,1H3,(H,22,23)",LSADDRSUZRRBAN-UHFFFAOYSA-N,OC(CCCC(O)=O)C=CC=CCC=CCCCCCCCC,C13H9Cl3N2O,322.48898,5.4670,15,333.88,1,162.88872,0,"(6<I>E</I>,8<I>E</I>,11<I>E</I>)-5-hydroxyicosa-6,8,11-trienoic acid"
"InChI=1S/C19H30O4/c1-2-3-8-12-17(20)13-9-6-4-5-7-10-14-18(21)15-11-16-19(22)23/h4-7,9-10,13-14,17-18,20-21H,2-3,8,11-12,15-16H2,1H3,(H,22,23)",LWGKHUDVNYBJLQ-UHFFFAOYSA-N,OC(CCCCC)C=CC=CC=CC=CC(O)CCCC(O)=O,C14H12O3,322.44501,4.4780,13,322.75,0,169.40303,1,"(6<I>E</I>,8<I>E</I>,10<I>E</I>,12<I>E</I>)-5,14-dihydroxynonadeca-6,8,10,12-tetraenoic acid"
"InChI=1S/C20H32O4/c1-2-3-4-5-6-7-8-9-10-11-12-13-15-18(21)19(22)16-14-17-20(23)24/h6-7,9-13,15,18-19,21-22H,2-5,8,14,16-17H2,1H3,(H,23,24)",UVZBUUTTYHTDRR-UHFFFAOYSA-N,OC(C(O)C=CC=CC=CCC=CCCCCC)CCCC(O)=O,C15H12N2O,336.47198,4.2120,14,338.13,0,185.04192,1,"(7<I>E</I>,9<I>E</I>,11<I>E</I>,14<I>E</I>)-5,6-dihydroxyicosa-7,9,11,14-tetraenoic acid"
"InChI=1S/C20H32O3/c1-2-3-4-5-6-7-8-9-10-11-12-13-14-16-19(21)17-15-18-20(22)23/h6-7,9-10,12-14,16,19,21H,2-5,8,11,15,17-18H2,1H3,(H,22,23)",KGIJOOYOSFUGPC-UHFFFAOYSA-N,OC(CCCC(O)=O)C=CC=CCC=CCC=CCCCCC,C4H4KNO4S,320.47299,4.8730,14,333.88,1,183.09003,0,"(6<I>E</I>,8<I>E</I>,11<I>E</I>,14<I>E</I>)-5-hydroxyicosa-6,8,11,14-tetraenoic acid"
"InChI=1S/C20H32O4/c1-2-3-4-5-6-7-8-9-10-11-12-13-14-16-19(24-23)17-15-18-20(21)22/h6-7,9-10,12-14,16,19,23H,2-5,8,11,15,17-18H2,1H3,(H,21,22)",JNUUNUQHXIOFDA-UHFFFAOYSA-N,O(O)C(CCCC(O)=O)C=CC=CCC=CCC=CCCCCC,C7H6O3,336.47198,5.0100,15,340.38,1,206.91142,1,"(6<I>E</I>,8<I>E</I>,11<I>E</I>,14<I>E</I>)-5-hydroperoxyicosa-6,8,11,14-tetraenoic acid"
"InChI=1S/C21H25N5O6/c22-21-25-17-14(19(30)26-21)9-12(10-23-17)2-1-11-3-5-13(6-4-11)18(29)24-15(20(31)32)7-8-16(27)28/h3-6,12,15H,1-2,7-10H2,(H,24,29)(H,27,28)(H,31,32)(H4,22,23,25,26,30)",ZUQBAQVRAURMCL-UHFFFAOYSA-N,O=C1N=C(NC=2NCC(CC1=2)CCc1ccc(cc1)C(=O)NC(CCC(O)=O)C(O)=O)N,C7H8N4O2,443.45999,1.2720,10,382.50,2,404.00366,0,"2-[[4-[2-(2-amino-4-oxo-5,6,7,8-tetrahydro-1<I>H</I>-pyrido[2,3-d]pyrimidin-6-yl)ethyl]benzoyl]amino]pentanedioic acid"
"InChI=1S/C6H11NO/c1-6(2)4-3-5-7(6)8/h5H,3-4H2,1-2H3",VCUVETGKTILCLC-UHFFFAOYSA-N,[O-][N+]1=CCCC1(C)C,C8H10N4O2,113.16,1.4440,0,106.13,0,32.372723,1,"2,2-dimethyl-1-oxido-3,4-dihydropyrrol-1-ium"
"InChI=1S/C15H12N2O2/c18-13-15(17-14(19)16-13,11-7-3-1-4-8-11)12-9-5-2-6-10-12/h1-10H,(H2,16,17,18,19)",CXOFVDLJLONNDW-UHFFFAOYSA-N,O=C1NC(=O)NC1(c1ccccc1)c1ccccc1,C8H14ClN5,252.27299,2.4490,2,222.38,0,130.62306,1,"5,5-diphenylimidazolidine-2,4-dione"
"InChI=1S/C8H9N5O3/c9-7-11-5-4(6(14)12-7)13-3(1-10-5)2-16-8(13)15/h3H,1-2H2,(H4,9,10,11,12,14)",XAZOBOCYEGBXHD-UHFFFAOYSA-N,O1CC2N(C3=C(NC(=NC3=O)N)NC2)C1=O,C8H8O3,223.192,-0.7420,0,176.13,0,278.3584,0,"3-amino-5,6,6<I>a</I>,7-tetrahydro-4<I>H</I>-oxazolo[3,4-f]pteridine-1,9-dione"
"InChI=1S/C20H30O2/c1-2-3-4-5-6-7-8-9-10-11-12-13-14-15-16-17-18-19-20(21)22/h6-7,9-10,12-13H,2-5,8,11,14,17-19H2,1H3,(H,21,22)",GIOQWSLKUVKKAO-UHFFFAOYSA-N,OC(=O)CCCC#CCC=CCC=CCC=CCCCCC,C8H9NO2,302.45801,5.2820,14,329.00,1,201.09856,1,"(8<I>E</I>,11<I>E</I>,14<I>E</I>)-icosa-8,11,14-trien-5-ynoic acid"
"InChI=1S/C20H32O3/c1-2-3-4-5-6-7-8-9-10-11-12-13-15-18-19(23-18)16-14-17-20(21)22/h6-7,9-10,12-13,18-19H,2-5,8,11,14-17H2,1H3,(H,21,22)",VBQNSZQZRAGRIX-UHFFFAOYSA-N,O1C(CCCC(O)=O)C1CC=CCC=CCC=CCCCCC,C9H10O3,320.47299,4.6980,14,331.25,1,191.06134,0,"4-[3-[(2<I>E</I>,5<I>E</I>,8<I>E</I>)-tetradeca-2,5,8-trienyl]oxiran-2-yl]butanoic acid"
"InChI=1S/C10H5Cl2NO3/c11-4-1-5(12)9-6(2-4)13-7(10(15)16)3-8(9)14/h1-3H,(H,13,14)(H,15,16)",BGKFPRIGXAVYNX-UHFFFAOYSA-N,Clc1c2c(NC(=CC2=O)C(O)=O)cc(Cl)c1,C9H8O2,258.06,2.5290,1,197.75,0,147.14674,1,"5,7-dichloro-4-oxo-1<I>H</I>-quinoline-2-carboxylic acid"
"InChI=1S/C20H24O2/c1-2-3-4-5-6-7-8-9-10-11-12-13-14-15-16-17-18-19-20(21)22/h2-5,8,11,14,17-19H2,1H3,(H,21,22)",MGLDCXPLYOWQRP-UHFFFAOYSA-N,OC(=O)CCCC#CCC#CCC#CCC#CCCCCC,C10H11ClO3,296.41,5.5880,14,330.13,0,273.52789,1,"icosa-5,8,11,14-tetraynoic acid"
"InChI=1S/C20H28O2/c1-2-3-4-5-6-7-8-9-10-11-12-13-14-15-16-17-18-19-20(21)22/h2-8,11,14,17-19H2,1H3,(H,21,22)",OWYNLPMPYBYKJP-UHFFFAOYSA-N,OC(=O)CCCC#CCC#CCC#CCCCCCCCC,C10H11N3O3S,300.44199,6.0800,15,327.38,0,171.58817,0,"icosa-5,8,11-triynoic acid"
"InChI=1S/C20H20Cl2N4O2S/c1-12(2)18-19(29-16-8-14(21)7-15(22)9-16)26(10-13-3-5-24-6-4-13)17(25-18)11-28-20(23)27/h3-9,12H,10-11H2,1-2H3,(H2,23,27)",YQXCVAGCMNFUMQ-UHFFFAOYSA-N,Clc1cc(Sc2n(Cc3ccncc3)c(nc2C(C)C)COC(=O)N)cc(Cl)c1,C10H12O3,451.37799,5.0250,8,369.13,1,150.66792,1,"[5-(3,5-dichlorophenyl)sulfanyl-4-isopropyl-1-(4-pyridylmethyl)imidazol-2-yl]methyl carbamate"
"InChI=1S/C21H17NO3S/c1-14(23)25-20-18-7-5-13-22(18)17-6-3-4-8-19(17)26-21(20)15-9-11-16(24-2)12-10-15/h3-13H,1-2H3",NCWRHYSPTPPIQP-UHFFFAOYSA-N,S1c2c(-n3c(ccc3)C(OC(=O)C)=C1c1ccc(OC)cc1)cccc2,C12H7Cl3O2,363.43698,5.7730,4,330.25,0,111.37534,0,"[6-(4-methoxyphenyl)pyrrolo[2,1-d][1,5]benzothiazepin-7-yl] acetate"
"InChI=1S/C22H20N2O3S/c1-23(2)22(25)27-20-18-8-6-14-24(18)17-7-4-5-9-19(17)28-21(20)15-10-12-16(26-3)13-11-15/h4-14H,1-3H3",RGAJIKNGJBAVQP-UHFFFAOYSA-N,S1c2c(-n3c(ccc3)C(OC(=O)N(C)C)=C1c1ccc(OC)cc1)cccc2,C13H10N2O3S,392.479,5.6140,5,364.88,1,147.7567,1,"[6-(4-methoxyphenyl)pyrrolo[2,1-d][1,5]benzothiazepin-7-yl] <I>N</I>,<I>N</I>-dimethylcarbamate"
"InChI=1S/C18H22N2O3/c1-14-13-17(23-20-14)5-3-2-4-11-21-16-8-6-15(7-9-16)18-19-10-12-22-18/h6-9,13H,2-5,10-12H2,1H3",IWZDYGHUSXWPPM-UHFFFAOYSA-N,O1CCN=C1c1ccc(OCCCCCc2onc(c2)C)cc1,C13H18O2,314.38498,3.2080,8,304.88,0,98.325569,1,"5-[5-[4-(4,5-dihydrooxazol-2-yl)phenoxy]pentyl]-3-methyl-isoxazole"
"InChI=1S/C19H24N2O3/c1-14-12-18(24-21-14)6-4-3-5-11-22-17-9-7-16(8-10-17)19-20-15(2)13-23-19/h7-10,12,15H,3-6,11,13H2,1-2H3",UXIYKMARWUSIKU-UHFFFAOYSA-N,O1CC(N=C1c1ccc(OCCCCCc2onc(c2)C)cc1)C,C13H9Cl3N2O,328.41199,3.6700,8,322.25,0,73.255592,0,"3-methyl-5-[5-[4-(4-methyl-4,5-dihydrooxazol-2-yl)phenoxy]pentyl]isoxazole"
"InChI=1S/C18H21ClN2O3/c1-13-11-15(24-21-13)5-3-2-4-9-22-17-7-6-14(12-16(17)19)18-20-8-10-23-18/h6-7,11-12H,2-5,8-10H2,1H3",FCSKOFQQCWLGMV-UHFFFAOYSA-N,Clc1cc(ccc1OCCCCCc1onc(c1)C)C=1OCCN=1,C14H12O3,348.82999,3.8350,8,319.25,0,97.681168,1,"5-[5-[2-chloro-4-(4,5-dihydrooxazol-2-yl)phenoxy]pentyl]-3-methyl-isoxazole"
"InChI=1S/C14H26N3O9P/c18-7-10(20)11(21)9(19)6-15-12-8(13(22)17-14(23)16-12)4-2-1-3-5-27(24,25)26/h9-11,18-21H,1-7H2,(H2,24,25,26)(H3,15,16,17,22,23)",BMATWAHJJFXMFA-UHFFFAOYSA-N,P(O)(O)(=O)CCCCCC=1C(=O)NC(=O)NC=1NCC(O)C(O)C(O)CO,C15H12N2O,411.34799,-3.4840,12,309.50,2,397.41745,0,"5-[2,4-dioxo-6-(2,3,4,5-tetrahydroxypentylamino)-1<I>H</I>-pyrimidin-5-yl]pentylphosphonic acid"
"InChI=1S/C21H28N2O3/c1-16-14-20(26-23-16)8-6-4-3-5-7-13-24-19-11-9-18(10-12-19)21-22-17(2)15-25-21/h9-12,14,17H,3-8,13,15H2,1-2H3",NEAZMARKCJKUMF-UHFFFAOYSA-N,O1CC(N=C1c1ccc(OCCCCCCCc2onc(c2)C)cc1)C,C4H4KNO4S,356.466,4.5540,10,353.63,0,72.566643,1,"3-methyl-5-[7-[4-(4-methyl-4,5-dihydrooxazol-2-yl)phenoxy]heptyl]isoxazole"
"InChI=1S/C21H27ClN2O3/c1-15-12-18(27-24-15)8-6-4-3-5-7-11-25-20-10-9-17(13-19(20)22)21-23-16(2)14-26-21/h9-10,12-13,16H,3-8,11,14H2,1-2H3",WOJFAPUTPSWFLJ-UHFFFAOYSA-N,Clc1cc(ccc1OCCCCCCCc1onc(c1)C)C=1OCC(N=1)C,C7H6O3,390.91098,5.1810,10,366.38,1,83.41906,1,"5-[7-[2-chloro-4-(4-methyl-4,5-dihydrooxazol-2-yl)phenoxy]heptyl]-3-methyl-isoxazole"
"InChI=1S/C12H13NO3S/c1-13(2)11-7-3-6-10-9(11)5-4-8-12(10)17(14,15)16/h3-8H,1-2H3,(H,14,15,16)",BBEQQKBWUHCIOU-UHFFFAOYSA-N,S(O)(=O)(=O)c1c2c(ccc1)c(N(C)C)ccc2,C7H8N4O2,251.306,1.9360,2,211.25,0,149.99933,0,5-(dimethylamino)naphthalene-1-sulfonic acid
"InChI=1S/C8H12ClN7O/c1-16(2)6-4(9)13-3(5(10)14-6)7(17)15-8(11)12/h1-2H3,(H2,10,14)(H4,11,12,15,17)",RXMUPNVSYKGKMY-UHFFFAOYSA-N,Clc1nc(C(=O)N=C(N)N)c(nc1N(C)C)N,C8H10N4O2,257.685,-0.1025,3,208.38,1,301.2402,1,3-amino-6-chloro-<I>N</I>-(diaminomethylene)-5-(dimethylamino)pyrazine-2-carboxamide
"InChI=1S/C12H18ClN7O/c13-8-10(20-5-3-1-2-4-6-20)18-9(14)7(17-8)11(21)19-12(15)16/h1-6H2,(H2,14,18)(H4,15,16,19,21)",RQQJJXVETXFINY-UHFFFAOYSA-N,Clc1nc(C(=O)NC(N)=N)c(nc1N1CCCCCC1)N,C8H14ClN5,311.77701,1.0685,4,259.38,1,265.63284,0,3-amino-5-(azepan-1-yl)-<I>N</I>-carbamimidoyl-6-chloro-pyrazine-2-carboxamide
"InChI=1S/C11H18ClN7O/c1-4-19(5(2)3)9-7(12)16-6(8(13)17-9)10(20)18-11(14)15/h5H,4H2,1-3H3,(H2,13,17)(H4,14,15,18,20)",QDERNBXNXJCIQK-UHFFFAOYSA-N,Clc1nc(C(=O)N=C(N)N)c(nc1N(C(C)C)CC)N,C8H8O3,299.76599,1.0415,5,252.50,1,256.64667,1,3-amino-6-chloro-<I>N</I>-(diaminomethylene)-5-[ethyl(isopropyl)amino]pyrazine-2-carboxamide