InChI,Key,smiles,Formula,Weight,logP(o/w),b_rotN,vol,lip_violation,ASA_P,Natural,ChemicalName
"InChI=1S/C83H133N3O26/c1-43(2)68(94)66(84-63(92)35-36-82(15,16)75(100)54(13)76(101)83(17,18)81(108)109-19)72(98)50(9)40-48(7)69(95)45(4)31-33-58(88)52(11)77(102)86-65(55(14)87)74-53(12)61(111-64(93)42 -60(90)78(103)104)34-32-46(5)70(96)47(6)39-49(8)71(97)5",XGMDDOZEJBZLGC-UHFFFAOYSA-N,O1C(C(NC(=O)C(C(O)CCC(C(O)C(=CC(C(O)C(NC(=O)C=CC(C(=O)C(C(O)C(C(OC)=O)(C)C)C)(C)C)C(O)C(C)C)C)C)C)C)C(O)C)C(C)C(OC(=O)CC(O)C(O)=O)CC=C(C)C(O)C(C=C(C)C(O)C(C)C(O)CC2OC(CC(C2)C)CC=CC=CCCC=CC=CC(=O)NC(C(O)C(O)=O)C1=O)C,C7H6O3,1588.9719,6.1990,33,1322.38,4,439.92133,1,"4-[[(3<I>Z</I>,5<I>E</I>,9<I>E</I>,11<I>E</I>,22<I>E</I>,26<I>E</I>)-15-[carboxy(hydroxy)methyl]-24,28,30-trihydroxy-18-[2-hydroxy-1-[[(<I>E</I>)-3,7,11,13-tetrahydroxy-12-[[(<I>E</I>)-7-hydroxy-9-met hoxy-4,4,6,8,8-pentamethyl-5,9-dioxo-non-2-enoyl]amino]-2,6,8,10,14-pentamethyl-pentadec-8-enoyl]amino]propyl]-19,23,25,27,29,34-hexamethyl-13,16-dioxo-17,36-dioxa-14-azabicyclo[30.3.1]hexatriaconta-3 ,5,9,11,22,26-hexaen-20-yl]oxy]-2-hydroxy-4-oxo-butanoic acid"
"InChI=1S/C79H129N3O22/c1-42(2)65(89)63(80-61(88)35-36-78(15,16)72(95)53(13)73(96)79(17,18)77(101)102-19)69(93)49(9)40-47(7)67(91)45(5)32-34-58(85)52(12)74(97)82-62(54(14)83)71-51(11)57(84)33-31-44(4)6 6(90)46(6)39-48(8)68(92)50(10)59(86)41-56-38-43(3)37-55",GPYVHURDBPUWND-UHFFFAOYSA-N,O1C(C(NC(=O)C(C(O)CCC(C(O)C(=CC(C(O)C(NC(=O)C=CC(C(=O)C(C(O)C(C(OC)=O)(C)C)C)(C)C)C(O)C(C)C)C)C)C)C)C(O)C)C(C)C(O)CC=C(C)C(O)C(C=C(C)C(O)C(C)C(O)CC2OC(CC(C2)C)CC=CC=CCCC=CC=CC(=O)NC(C(O)C(O)=O)C1=O)C,C7H8N4O2,1472.9,6.7160,28,1261.75,4,431.56018,1,"2-hydroxy-2-[(3<I>Z</I>,5<I>E</I>,9<I>E</I>,11<I>E</I>,22<I>E</I>,26<I>E</I>)-20,24,28,30-tetrahydroxy-18-[2-hydroxy-1-[[(<I>Z</I>)-3,7,11,13-tetrahydroxy-12-[[(<I>E</I>)-7-hydroxy-9-methoxy-4,4,6,8,8 -pentamethyl-5,9-dioxo-non-2-enoyl]amino]-2,6,8,10,14-pentamethyl-pentadec-8-enoyl]amino]propyl]-19,23,25,27,29,34-hexamethyl-13,16-dioxo-17,36-dioxa-14-azabicyclo[30.3.1]hexatriaconta-3,5,9,11,22,26- hexaen-15-yl]acetic acid"
"InChI=1S/C81H131N3O23/c1-43(2)36-59(82-65(90)34-35-81(17,18)76(98)55(15)69(92)44(3)4)73(96)51(11)40-49(9)70(93)46(6)30-32-60(86)53(13)77(99)84-67(56(16)85)75-54(14)63(106-66(91)42-62(88)78(100)101)33- 31-47(7)71(94)48(8)39-50(10)72(95)52(12)61(87)41-58-38-",GEZOROLPTYSTEM-UHFFFAOYSA-N,O1C(C(NC(=O)C(C(O)CCC(C(O)C(=CC(C(O)C(NC(=O)C=CC(C(=O)C(C(O)C(C)C)C)(C)C)CC(C)C)C)C)C)C)C(O)C)C(C)C(OC(=O)CC(O)C(O)=O)CC=C(C)C(O)C(C=C(C)C(O)C(C)C(O)CC2OC(CC(C2)C)CC=CC=CCCC=CC=CC(=O)NC(C(O)C(O)=O)C1=O)C,C8H10N4O2,1514.937,7.9440,31,1308.63,4,496.19659,0,"4-[[(3<I>Z</I>,5<I>E</I>,9<I>E</I>,11<I>E</I>,22<I>E</I>,26<I>E</I>)-15-[carboxy(hydroxy)methyl]-24,28,30-trihydroxy-18-[2-hydroxy-1-[[(<I>E</I>)-3,7,11-trihydroxy-12-[[(<I>E</I>)-7-hydroxy-4,4,6,8-te tramethyl-5-oxo-non-2-enoyl]amino]-2,6,8,10,14-pentamethyl-pentadec-8-enoyl]amino]propyl]-19,23,25,27,29,34-hexamethyl-13,16-dioxo-17,36-dioxa-14-azabicyclo[30.3.1]hexatriaconta-3,5,9,11,22,26-hexaen- 20-yl]oxy]-2-hydroxy-4-oxo-butanoic acid"
"InChI=1S/C83H133N3O26/c1-43(2)68(93)66(84-63(91)35-36-82(15,16)75(100)54(13)76(101)83(17,18)81(108)109-19)72(97)50(9)40-48(7)69(94)45(4)31-33-58(87)52(11)77(102)86-65-55(14)110-80(107)67(74(99)79(105) 106)85-62(90)30-28-26-24-22-20-21-23-25-27-29-56-37-44(",WBOYXNHINMBQNA-UHFFFAOYSA-N,O1C(C)C(NC(=O)C(C(O)CCC(C(O)C(=CC(C(O)C(NC(=O)C=CC(C(=O)C(C(O)C(C(OC)=O)(C)C)C)(C)C)C(O)C(C)C)C)C)C)C)C(O)C(C)C(OC(=O)CC(O)C(O)=O)CC=C(C)C(O)C(C=C(C)C(O)C(C)C(O)CC2OC(CC(C2)C)CC=CC=CCCC=CC=CC(=O)NC(C(O)C(O)=O)C1=O)C,C8H14ClN5,1588.9719,6.1990,31,1261.63,4,562.34033,1,"4-[[(3<I>E</I>,9<I>E</I>,11<I>E</I>,24<I>E</I>,28<I>E</I>)-15-[carboxy(hydroxy)methyl]-20,26,30,32-tetrahydroxy-18,21,25,27,29,31,36-heptamethyl-13,16-dioxo-19-[[(<I>E</I>)-3,7,11,13-tetrahydroxy-12-[ [(<I>E</I>)-7-hydroxy-9-methoxy-4,4,6,8,8-pentamethyl-5,9-dioxo-non-2-enoyl]amino]-2,6,8,10,14-pentamethyl-pentadec-8-enoyl]amino]-17,38-dioxa-14-azabicyclo[32.3.1]octatriaconta-3,5,9,11,24,28-hexaen- 22-yl]oxy]-2-hydroxy-4-oxo-butanoic acid"
"InChI=1S/C10H6O4/c11-7-5-9(10(12)13)14-8-4-2-1-3-6(7)8/h1-5H,(H,12,13)",RVMGXWBCQGAWBR-UHFFFAOYSA-N,O1c2c(cccc2)C(=O)C=C1C(O)=O,C8H8O3,190.15399,1.1030,1,169.63,0,144.02571,0,4-oxochromene-2-carboxylic acid
"InChI=1S/C57H82O25/c1-21-35(79-39-17-36(52(26(6)75-39)77-28(8)59)80-38-16-34(61)51(70-11)25(5)74-38)15-31-13-30-14-32(53(71-12)49(68)46(65)24(4)58)54(48(67)42(30)47(66)41(31)45(21)64)82-56-23(3)43(62) 33(19-73-56)50-22(2)44(63)37(20-72-50)81-40-18-57(10,69",CTNJGVOFCKHXJW-UHFFFAOYSA-N,O1C(C)C(OC(=O)C)C(O)(CC1OC1COC(C(C)C1O)C1COC(OC2C(Cc3c(C2=O)c(O)c2c(cc(OC4OC(C)C(OC(=O)C)C(OC5OC(C)C(OC)C(O)C5)C4)c(C)c2O)c3)C(OC)C(=O)C(O)C(O)C)C(C)C1O)C,C8H9NO2,1167.2579,2.9357,19,943.25,3,444.93057,1,"[6-[[6-[5-[5-(5-acetoxy-4-hydroxy-4,6-dimethyl-tetrahydropyran-2-yl)oxy-4-hydroxy-3-methyl-tetrahydropyran-2-yl]-4-hydroxy-3-methyl-tetrahydropyran-2-yl]oxy-7-(3,4-dihydroxy-1-methoxy-2-oxo-pentyl)-4, 10-dihydroxy-3-methyl-5-oxo-7,8-dihydro-6<I>H</I>-anthracen-2-yl]oxy]-4-(4-hydroxy-5-methoxy-6-methyl-tetrahydropyran-2-yl)oxy-2-methyl-tetrahydropyran-3-yl] acetate"
"InChI=1S/C10H16O2/c1-6(2)5-7-8(9(11)12)10(7,3)4/h5,7-8H,1-4H3,(H,11,12)",XLOPRKKSAJMMEW-UHFFFAOYSA-N,OC(=O)C1C(C)(C)C1C=C(C)C,C9H10O3,168.23599,1.3460,2,165.13,0,85.391312,1,"2,2-dimethyl-3-(2-methylprop-1-enyl)cyclopropanecarboxylic acid"
"InChI=1S/C31H41N7O7/c1-18(2)15-22(26(39)35-23(28(41)42)16-19-9-5-3-6-10-19)34-27(40)25(21-13-14-33-30(32)36-21)38-31(45)37-24(29(43)44)17-20-11-7-4-8-12-20/h3-12,18,21-25H,13-17H2,1-2H3,(H,34,40)(H,35 ,39)(H,41,42)(H,43,44)(H3,32,33,36)(H2,37,38,45)",MNHUFUWSOBLOCE-UHFFFAOYSA-N,OC(=O)C(NC(=O)C(NC(=O)C(NC(=O)NC(Cc1ccccc1)C(O)=O)C1NC(=NCC1)N)CC(C)C)Cc1ccccc1,C9H8O2,623.711,1.9480,19,535.13,3,318.61563,0,"2-[[2-[[2-(2-amino-1,4,5,6-tetrahydropyrimidin-6-yl)-2-[(1-carboxy-2-phenyl-ethyl)carbamoylamino]acetyl]amino]-4-methyl-pentanoyl]amino]-3-phenyl-propanoic acid"
"InChI=1S/C15H15N3O2/c1-10(19)17-12-8-6-11(7-9-12)15(20)18-14-5-3-2-4-13(14)16/h2-9H,16H2,1H3,(H,17,19)(H,18,20)",VAZAPHZUAVEOMC-UHFFFAOYSA-N,O=C(Nc1ccccc1N)c1ccc(NC(=O)C)cc1,C10H11ClO3,269.30399,1.4760,5,257.50,0,143.02991,1,4-acetamido-<I>N</I>-(2-aminophenyl)benzamide
"InChI=1S/C18H18N2/c1-3-7-14(8-4-1)18(15-9-5-2-6-10-15)13-16(18)17-19-11-12-20-17/h1-10,16H,11-13H2,(H,19,20)",IPOBOOXFSRWSHL-UHFFFAOYSA-N,N1CCN=C1C1CC1(c1ccccc1)c1ccccc1,C10H11N3O3S,262.35599,3.4980,3,251.38,0,71.455521,0,"2-(2,2-diphenylcyclopropyl)-4,5-dihydro-1<I>H</I>-imidazole"
"InChI=1S/C15H23N3O4S/c1-14(2)9(12(20)21)18-10(19)8(11(18)23-14)17-13(22)15(16)6-4-3-5-7-15/h8-9,11H,3-7,16H2,1-2H3,(H,17,22)(H,20,21)",HGBLNBBNRORJKI-UHFFFAOYSA-N,S1C2N(C(C(O)=O)C1(C)C)C(=O)C2NC(=O)C1(N)CCCCC1,C10H12O3,341.43201,0.8780,4,270.00,0,213.35086,1,"6-[(1-aminocyclohexanecarbonyl)amino]-3,3-dimethyl-7-oxo-4-thia-1-azabicyclo[3.2.0]heptane-2-carboxylic acid"
"InChI=1S/C12H17NO2/c1-9-7-11(13(15)12(14)8-9)10-5-3-2-4-6-10/h7-8,10,15H,2-6H2,1H3",SCKYRAXSEDYPSA-UHFFFAOYSA-N,O=C1N(O)C(=CC(=C1)C)C1CCCCC1,C12H7Cl3O2,207.27299,2.2130,1,197.13,0,83.001457,1,6-cyclohexyl-1-hydroxy-4-methyl-pyridin-2-one
"InChI=1S/C18H23NO3S/c1-18(9-3-2-4-10-18)12-22-14-7-5-13(6-8-14)11-15-16(20)19-17(21)23-15/h5-8,15H,2-4,9-12H2,1H3,(H,19,20,21)",YZFWTZACSRHJQD-UHFFFAOYSA-N,S1C(Cc2ccc(OCC3(CCCCC3)C)cc2)C(=O)NC1=O,C13H10N2O3S,333.452,4.4610,5,292.88,0,166.66348,0,"5-[[4-[(1-methylcyclohexyl)methoxy]phenyl]methyl]thiazolidine-2,4-dione"
"InChI=1S/C22H31N3O5/c1-2-30-22(29)18(13-12-16-8-4-3-5-9-16)23-17-10-6-14-24-15-7-11-19(21(27)28)25(24)20(17)26/h3-5,8-9,17-19,23H,2,6-7,10-15H2,1H3,(H,27,28)",HHHKFGXWKKUNCY-UHFFFAOYSA-N,O=C1N2N(CCCC1NC(CCc1ccccc1)C(OCC)=O)CCCC2C(O)=O,C13H18O2,417.50598,2.1310,9,374.25,0,148.39024,1,"7-[(1-ethoxycarbonyl-3-phenyl-propyl)amino]-6-oxo-1,2,3,4,7,8,9,10-octahydropyridazino[1,2-a]diazepine-4-carboxylic acid"
"InChI=1S/C27H28N2O7/c1-18-23(26(30)35-14-8-11-20-9-5-4-6-10-20)25(21-12-7-13-22(17-21)29(32)33)24(19(2)28-18)27(31)36-16-15-34-3/h4-13,17,25,28H,14-16H2,1-3H3",KJEBULYHNRNJTE-UHFFFAOYSA-N,O(C(=O)C=1C(C(C(OCCOC)=O)=C(NC=1C)C)c1cc([N+](=O)[O-])ccc1)CC=Cc1ccccc1,C13H9Cl3N2O,492.52798,4.7127,12,451.63,0,212.7796,0,"<I>O</I>5-[(E)-cinnamyl] <I>O</I>3-(2-methoxyethyl) 2,6-dimethyl-4-(3-nitrophenyl)-1,4-dihydropyridine-3,5-dicarboxylate"
"InChI=1S/C20H26N2O3/c1-22(16-6-3-2-4-7-16)20(24)8-5-13-25-17-10-11-18-15(14-17)9-12-19(23)21-18/h9-12,14,16H,2-8,13H2,1H3,(H,21,23)",UIAYVIIHMORPSJ-UHFFFAOYSA-N,O(CCCC(=O)N(C)C1CCCCC1)c1cc2C=CC(=O)Nc2cc1,C14H12O3,342.439,3.3590,7,331.13,0,120.87949,1,<I>N</I>-cyclohexyl-<I>N</I>-methyl-4-[(2-oxo-1<I>H</I>-quinolin-6-yl)oxy]butanamide
"InChI=1S/C20H27N5O2/c26-20-12-9-15-14-17(10-11-18(15)21-20)27-13-5-4-8-19-22-23-24-25(19)16-6-2-1-3-7-16/h10-11,14,16H,1-9,12-13H2,(H,21,26)",RRGUKTPIGVIEKM-UHFFFAOYSA-N,O(CCCCc1nnnn1C1CCCCC1)c1cc2CCC(=O)Nc2cc1,C15H12N2O,369.46899,2.5840,7,343.38,0,112.87234,1,"6-[4-(1-cyclohexyltetrazol-5-yl)butoxy]-3,4-dihydro-1<I>H</I>-quinolin-2-one"
"InChI=1S/C12H17N3O/c1-8(2)15-7-12(16)9-3-4-11(14)10(5-9)6-13/h3-5,8,12,15-16H,7,14H2,1-2H3",BUXRLJCGHZZYNE-UHFFFAOYSA-N,OC(CNC(C)C)c1cc(C#N)c(N)cc1,C4H4KNO4S,219.28799,0.9400,5,214.75,0,179.25888,0,2-amino-5-[1-hydroxy-2-(isopropylamino)ethyl]benzonitrile
"InChI=1S/C10H16N6S/c1-8-9(16-7-15-8)5-17-4-3-13-10(12-2)14-6-11/h7H,3-5H2,1-2H3,(H,15,16)(H2,12,13,14)",AQIXAKUUQRKLND-UHFFFAOYSA-N,S(Cc1nc[nH]c1C)CCN\C(=N\C)\NC#N,C7H6O3,252.34599,-0.2780,8,232.00,0,227.50482,1,1-cyano-2-methyl-3-[2-[(5-methyl-1<I>H</I>-imidazol-4-yl)methylsulfanyl]ethyl]guanidine
"InChI=1S/C19H22N2O/c1-2-13-12-21-10-8-14(13)11-18(21)19(22)16-7-9-20-17-6-4-3-5-15(16)17/h2-7,9,13-14,18-19,22H,1,8,10-12H2",KMPWYEUPVWOPIM-UHFFFAOYSA-N,OC(C1N2CC(C(C1)CC2)C=C)c1c2c(ncc1)cccc2,C7H8N4O2,294.39798,2.7770,3,258.25,0,108.98798,0,4-quinolyl-(5-vinylquinuclidin-2-yl)methanol
"InChI=1S/C10H18O/c1-9(2)8-4-6-10(3,11-9)7-5-8/h8H,4-7H2,1-3H3",WEEGYLXZBRQIMU-UHFFFAOYSA-N,O1C(C2CCC1(CC2)C)(C)C,C8H10N4O2,154.25299,2.9560,0,133.25,0,3.404326,1,"2,2,4-trimethyl-3-oxabicyclo[2.2.2]octane"
"InChI=1S/C22H31N3O5/c1-28-18-14-17(15-19(29-2)22(18)30-3)6-7-20(26)25-12-10-23(11-13-25)16-21(27)24-8-4-5-9-24/h6-7,14-15H,4-5,8-13,16H2,1-3H3",RCUDFXMNPQNBDU-UHFFFAOYSA-N,O(C)c1c(OC)cc(cc1OC)C=CC(=O)N1CCN(CC1)CC(=O)N1CCCC1,C8H14ClN5,417.50598,0.8685,9,397.38,0,193.93384,1,"(<I>E</I>)-1-[4-(2-oxo-2-pyrrolidin-1-yl-ethyl)piperazin-1-yl]-3-(3,4,5-trimethoxyphenyl)prop-2-en-1-one"
"InChI=1S/C26H28N2/c1-4-11-23(12-5-1)13-10-18-27-19-21-28(22-20-27)26(24-14-6-2-7-15-24)25-16-8-3-9-17-25/h1-12,14-18,26H,13,19-22H2",SSKFWBSXNIWCBH-UHFFFAOYSA-N,N1(CCN(CC1)C=CCc1ccccc1)C(c1ccccc1)c1ccccc1,C8H8O3,368.52399,5.4890,6,386.38,1,29.687777,0,1-benzhydryl-4-[(<I>E</I>)-3-phenylprop-1-enyl]piperazine
"InChI=1S/C26H28N2/c1-4-11-23(12-5-1)13-10-18-27-19-21-28(22-20-27)26(24-14-6-2-7-15-24)25-16-8-3-9-17-25/h1-17,26H,18-22H2",DERZBLKQOCDDDZ-UHFFFAOYSA-N,N1(CCN(CC1)CC=Cc1ccccc1)C(c1ccccc1)c1ccccc1,C8H9NO2,368.52399,5.8210,6,386.38,1,32.491413,1,1-benzhydryl-4-[(E)-cinnamyl]piperazine
"InChI=1S/C12H10N2O5/c1-2-14-7-4-9-8(18-5-19-9)3-6(7)11(15)10(13-14)12(16)17/h3-4H,2,5H2,1H3,(H,16,17)",VDUWPHTZYNWKRN-UHFFFAOYSA-N,O1c2c(OC1)cc1N(N=C(C(O)=O)C(=O)c1c2)CC,C9H10O3,262.22101,1.4280,2,222.50,0,212.13289,0,"1-ethyl-4-oxo-[1,3]dioxolo[4,5-g]cinnoline-3-carboxylic acid"
"InChI=1S/C13H14Cl2O3/c1-12(2,11(16)17)18-9-5-3-8(4-6-9)10-7-13(10,14)15/h3-6,10H,7H2,1-2H3,(H,16,17)",KPSRODZRAIWAKH-UHFFFAOYSA-N,ClC1(Cl)CC1c1ccc(OC(C(O)=O)(C)C)cc1,C9H8O2,289.15799,4.1484,4,230.75,0,220.72588,1,"2-[4-(2,2-dichlorocyclopropyl)phenoxy]-2-methyl-propanoic acid"
"InChI=1S/C17H18FN3O3/c18-13-7-11-14(8-15(13)20-5-3-19-4-6-20)21(10-1-2-10)9-12(16(11)22)17(23)24/h7-10,19H,1-6H2,(H,23,24)",MYSWGUAQZAJSOK-UHFFFAOYSA-N,Fc1cc2c(N(C=C(C(O)=O)C2=O)C2CC2)cc1N1CCNCC1,C10H11ClO3,331.34698,1.0370,3,293.38,0,218.90327,1,1-cyclopropyl-6-fluoro-4-oxo-7-piperazin-1-yl-quinoline-3-carboxylic acid
"InChI=1S/C13H16N2O/c1-2-4-12(11(3-1)10-5-6-10)16-9-13-14-7-8-15-13/h1-4,10H,5-9H2,(H,14,15)",YAORIDZYZDUZCM-UHFFFAOYSA-N,O(CC=1NCCN=1)c1ccccc1C1CC1,C10H11N3O3S,216.284,1.6680,4,217.00,0,102.15619,0,"2-[(2-cyclopropylphenoxy)methyl]-4,5-dihydro-1<I>H</I>-imidazole"
"InChI=1S/C4H7NO2/c5-3-1-2-4(6)7/h1-2H,3,5H2,(H,6,7)",FMKJUUQOYOHLTF-UHFFFAOYSA-N,OC(=O)C=CCN,C10H12O3,101.105,-0.4770,2,90.38,0,184.08624,1,(<I>E</I>)-4-aminobut-2-enoic acid
InChI=1S/2ClH.2H2N.Pt/h2*1H;2*1H2;/q;;2*-1;+4/p-2,DQLATGHUWYMOKM-UHFFFAOYSA-L,[Pt+2](Cl)Cl.[NH2-].[NH2-],C12H7Cl3O2,298.035,1.5924,0,80.38,0,221.63477,0,azanide;dichloroplatinum(2+)
InChI=1S/2ClH.Pt/h2*1H;/q;;+4/p-2,DLBNRDWREIUHLD-UHFFFAOYSA-L,[Pt+2](Cl)Cl,C13H10N2O3S,265.98898,1.5924,0,54.13,0,220.87811,1,dichloroplatinum(2+)
"InChI=1S/C23H29ClFN3O4/c1-30-21-13-19(26)18(24)12-17(21)23(29)27-20-8-10-28(14-22(20)31-2)9-3-11-32-16-6-4-15(25)5-7-16/h4-7,12-13,20,22H,3,8-11,14,26H2,1-2H3,(H,27,29)",DCSUBABJRXZOMT-UHFFFAOYSA-N,Clc1cc(C(=O)NC2CCN(CC2OC)CCCOc2ccc(F)cc2)c(OC)cc1N,C13H18O2,465.953,3.4450,10,416.00,0,149.75996,1,4-amino-5-chloro-<I>N</I>-[1-[3-(4-fluorophenoxy)propyl]-3-methoxy-4-piperidyl]-2-methoxy-benzamide
InChI=1S/2ClH.Pt/h2*1H;/q;;+2/p-2,CLSUSRZJUQMOHH-UHFFFAOYSA-L,[Pt](Cl)Cl,C13H9Cl3N2O,265.98898,1.5924,0,54.13,0,219.95367,0,dichloroplatinum
"InChI=1S/C20H21FN2O/c1-23(2)11-3-10-20(17-5-7-18(21)8-6-17)19-9-4-15(13-22)12-16(19)14-24-20/h4-9,12H,3,10-11,14H2,1-2H3",WSEQXVZVJXJVFP-UHFFFAOYSA-N,Fc1ccc(cc1)C1(OCc2c1ccc(c2)C#N)CCCN(C)C,C14H12O3,324.39899,4.4000,6,307.13,0,137.80652,1,1-[3-(dimethylamino)propyl]-1-(4-fluorophenyl)-3<I>H</I>-isobenzofuran-5-carbonitrile
"InChI=1S/C14H26N4O11P2/c1-18(2,3)6-7-27-30(22,23)29-31(24,25)28-9-14(21)8-26-12(11(14)19)17-5-4-10(15)16-13(17)20/h4-5,11-12,19,21H,6-9H2,1-3H3,(H3-,15,16,20,22,23,24,25)/p+1",FPASECLHIZSLJL-UHFFFAOYSA-O,P(OCC1(O)COC(N2C=CC(=NC2=O)N)C1O)(OP(OCC[N+](C)(C)C)(O)=O)(O)=O,C15H12N2O,489.33499,-4.3540,10,345.13,2,396.15289,0,"2-[[[5-(4-amino-2-oxo-pyrimidin-1-yl)-3,4-dihydroxy-tetrahydrofuran-3-yl]methoxy-hydroxy-phosphoryl]oxy-hydroxy-phosphoryl]oxyethyl-trimethyl-ammonium"
"InChI=1S/C6H9NO2S/c1-4(8)7-6-5(9)2-3-10-6/h6H,2-3H2,1H3,(H,7,8)",XZPSMGBHBUQFHR-UHFFFAOYSA-N,S1CCC(=O)C1NC(=O)C,C4H4KNO4S,159.209,-0.4140,2,128.00,0,148.82503,1,<I>N</I>-(3-oxotetrahydrothiophen-2-yl)acetamide
"InChI=1S/C13H14O5/c1-5-7(3)18-4-8-9(5)6(2)11(14)10(12(8)15)13(16)17/h4-5,7,16-17H,1-3H3",JLWQFKMKUKQXMW-UHFFFAOYSA-N,O1C=C2C(C(C)C1C)=C(C)C(=O)C(=C(O)O)C2=O,C7H6O3,250.25,0.6630,0,217.13,0,141.64714,1,"7-(dihydroxymethylene)-3,4,5-trimethyl-3,4-dihydroisochromene-6,8-dione"
"InChI=1S/C11H10O4/c1-13-7-5-9(14-2)8-3-4-11(12)15-10(8)6-7/h3-6H,1-2H3",NXJCRELRQHZBQA-UHFFFAOYSA-N,O1c2c(C=CC1=O)c(OC)cc(OC)c2,C7H8N4O2,206.19699,2.1590,2,193.50,0,137.07309,0,"5,7-dimethoxychromen-2-one"
"InChI=1S/C18H13BrN4O/c1-2-4-17(24)22-14-7-8-16-15(10-14)18(21-11-20-16)23-13-6-3-5-12(19)9-13/h3,5-11H,1H3,(H,22,24)(H,20,21,23)",BTYYWOYVBXILOJ-UHFFFAOYSA-N,Brc1cc(Nc2ncnc3c2cc(NC(=O)C#CC)cc3)ccc1,C8H10N4O2,381.233,3.6580,5,325.50,0,180.74126,1,<I>N</I>-[4-(3-bromoanilino)quinazolin-6-yl]but-2-ynamide
"InChI=1S/C17H22N2O3/c20-17(16-13-14-5-1-2-6-15(14)22-16)18-7-3-4-8-19-9-11-21-12-10-19/h1-2,5-6,13H,3-4,7-12H2,(H,18,20)",KUJQEQAVMNFFAO-UHFFFAOYSA-N,o1c2c(cc1C(=O)NCCCCN1CCOCC1)cccc2,C8H14ClN5,302.37399,1.7180,7,289.13,0,107.22224,0,<I>N</I>-(4-morpholinobutyl)benzofuran-2-carboxamide
"InChI=1S/C35H63NO13/c1-17-16-34(7,44-12)26(49-33-30(39)23(36(9)10)13-18(2)45-33)14-24(48-27-15-25(43-11)29(38)21(5)46-27)19(3)32(41)47-22(6)35(8,42)31(40)20(4)28(17)37/h17-27,29-31,33,38-40,42H,13-16H 2,1-12H3",ZYSNAYKWOYGBGS-UHFFFAOYSA-N,O1C(C)C(O)(C)C(O)C(C)C(=O)C(CC(OC)(C)C(OC2OC(CC(N(C)C)C2O)C)CC(OC2OC(C)C(O)C(OC)C2)C(C)C1=O)C,C8H8O3,705.883,1.7457,7,548.50,2,236.2845,1,"6-[4-(dimethylamino)-3-hydroxy-6-methyl-tetrahydropyran-2-yl]oxy-12,13-dihydroxy-4-(5-hydroxy-4-methoxy-6-methyl-tetrahydropyran-2-yl)oxy-7-methoxy-3,7,9,11,13,14-hexamethyl-oxacyclotetradecane-2,10-d ione"
"InChI=1S/C10H15NO4/c1-4(2)6(12)10-7(15-9(10)14)5(3)8(13)11-10/h4-7,12H,1-3H3,(H,11,13)",FWPWHHUJACGNMZ-UHFFFAOYSA-N,O1C2C(NC(=O)C2C)(C(O)C(C)C)C1=O,C8H9NO2,213.233,-0.0120,2,173.25,0,142.9472,1,"5-(1-hydroxy-2-methyl-propyl)-2-methyl-7-oxa-4-azabicyclo[3.2.0]heptane-3,6-dione"
"InChI=1S/C20H24ClN3O2/c1-26-19-12-18(22)17(21)11-16(19)20(25)23-15-7-9-24(10-8-15)13-14-5-3-2-4-6-14/h2-6,11-12,15H,7-10,13,22H2,1H3,(H,23,25)",BVPWJMCABCPUQY-UHFFFAOYSA-N,Clc1cc(C(=O)NC2CCN(CC2)Cc2ccccc2)c(OC)cc1N,C9H10O3,373.884,3.4690,6,344.13,0,136.4118,0,4-amino-<I>N</I>-(1-benzyl-4-piperidyl)-5-chloro-2-methoxy-benzamide
"InChI=1S/C21H26ClNO/c1-21(17-7-4-3-5-8-17,18-10-12-19(22)13-11-18)24-16-14-20-9-6-15-23(20)2/h3-5,7-8,10-13,20H,6,9,14-16H2,1-2H3",YNNUSGIPVFPVBX-UHFFFAOYSA-N,Clc1ccc(cc1)C(OCCC1N(CCC1)C)(C)c1ccccc1,C9H8O2,343.89798,5.8760,6,322.13,1,25.722445,1,2-[2-[1-(4-chlorophenyl)-1-phenyl-ethoxy]ethyl]-1-methyl-pyrrolidine
"InChI=1S/C19H20ClN3/c20-16-9-7-15(8-10-16)13-23-18-6-2-1-5-17(18)21-19(23)14-22-11-3-4-12-22/h1-2,5-10H,3-4,11-14H2",CJXAEXPPLWQRFR-UHFFFAOYSA-N,Clc1ccc(cc1)Cn1c2c(nc1CN1CCCC1)cccc2,C10H11ClO3,325.84299,4.6730,4,309.25,0,42.516441,0,1-[(4-chlorophenyl)methyl]-2-(pyrrolidin-1-ylmethyl)benzimidazole
"InChI=1S/C12H18Cl2N2O/c1-12(2,3)16-6-10(17)7-4-8(13)11(15)9(14)5-7/h4-5,10,16-17H,6,15H2,1-3H3",STJMRWALKKWQGH-UHFFFAOYSA-N,Clc1cc(cc(Cl)c1N)C(O)CNC(C)(C)C,C10H11N3O3S,277.19501,2.9060,4,230.63,0,90.898766,1,"1-(4-amino-3,5-dichloro-phenyl)-2-(tert-butylamino)ethanol"
"InChI=1S/C22H26NO3/c1-23-14-12-17(13-15-23)20(16-23)26-21(24)22(25,18-8-4-2-5-9-18)19-10-6-3-7-11-19/h2-11,17,20,25H,12-16H2,1H3/q+1",HOOSGZJRQIVJSZ-UHFFFAOYSA-N,O(C(=O)C(O)(c1ccccc1)c1ccccc1)C1C2CC[N+](C1)(CC2)C,C10H12O3,352.45398,3.2720,5,307.13,0,89.176468,1,"(1-methylquinuclidin-1-ium-3-yl) 2-hydroxy-2,2-diphenyl-acetate"
"InChI=1S/C22H26N4O4/c1-26(2)22(30)18(14-16-8-4-3-5-9-16)25-21(29)19(27)15-20(28)24-13-11-17-10-6-7-12-23-17/h3-10,12,18H,11,13-15H2,1-2H3,(H,24,28)(H,25,29)",ZPFPZRVOBBMZMP-UHFFFAOYSA-N,O=C(CC(=O)NCCc1ncccc1)C(=O)NC(Cc1ccccc1)C(=O)N(C)C,C12H7Cl3O2,410.474,0.1130,13,388.25,0,183.05046,0,<I>N</I>-[1-benzyl-2-(dimethylamino)-2-oxo-ethyl]-2-oxo-<I>N</I>'-[2-(2-pyridyl)ethyl]butanediamide
"InChI=1S/C18H33ClN2O5S/c1-5-6-10-7-11(21(3)8-10)17(25)20-12(9(2)19)16-14(23)13(22)15(24)18(26-16)27-4/h9-16,18,22-24H,5-8H2,1-4H3,(H,20,25)",KDLRVYVGXIQJDK-UHFFFAOYSA-N,ClC(C(NC(=O)C1N(CC(C1)CCC)C)C1OC(SC)C(O)C(O)C1O)C,C13H10N2O3S,424.98999,1.0460,8,344.63,0,255.60915,1,"<I>N</I>-[2-chloro-1-(3,4,5-trihydroxy-6-methylsulfanyl-tetrahydropyran-2-yl)propyl]-1-methyl-4-propyl-pyrrolidine-2-carboxamide"
"InChI=1S/C28H36O6/c1-5-26(3,24(29)30)33-22-14-10-20(11-15-22)28(18-8-7-9-19-28)21-12-16-23(17-13-21)34-27(4,6-2)25(31)32/h10-17H,5-9,18-19H2,1-4H3,(H,29,30)(H,31,32)",BMOVQUBVGICXQN-UHFFFAOYSA-N,O(C(CC)(C(O)=O)C)c1ccc(cc1)C1(CCCCC1)c1ccc(OC(CC)(C(O)=O)C)cc1,C13H18O2,468.59,8.0500,10,406.88,1,152.27113,0,2-[4-[1-[4-(1-carboxy-1-methyl-propoxy)phenyl]cyclohexyl]phenoxy]-2-methyl-butanoic acid
"InChI=1S/C9H5ClINO/c10-6-4-7(11)9(13)8-5(6)2-1-3-12-8/h1-4,13H",QCDFBFJGMNKBDO-UHFFFAOYSA-N,Ic1cc(Cl)c2c(nccc2)c1O,C13H9Cl3N2O,305.50198,3.6130,0,185.63,0,56.961796,1,5-chloro-7-iodo-quinolin-8-ol
"InChI=1S/C16H13ClN2O2/c1-18-13-8-7-11(17)9-14(13)19(16(21)10-15(18)20)12-5-3-2-4-6-12/h2-9H,10H2,1H3",CXOXHMZGEKVPMT-UHFFFAOYSA-N,Clc1cc2N(C(=O)CC(=O)N(c2cc1)C)c1ccccc1,C14H12O3,300.745,2.6470,1,268.00,0,91.12101,1,"7-chloro-1-methyl-5-phenyl-1,5-benzodiazepine-2,4-dione"
"InChI=1S/C14H17ClN4S/c15-12-5-3-11(4-6-12)8-18-14(16)20-7-1-2-13-9-17-10-19-13/h3-6,9-10H,1-2,7-8H2,(H2,16,18)(H,17,19)",UCAIEVHKDLMIFL-UHFFFAOYSA-N,Clc1ccc(cc1)C\N=C(\SCCCc1[nH]cnc1)/N,C15H12N2O,308.83701,2.7590,7,274.13,0,143.47575,0,3-[(4-chlorophenyl)methyl]-2-[3-(1<I>H</I>-imidazol-5-yl)propyl]isothiourea