InChI,Key,smiles,Formula,Weight,logP(o/w),b_rotN,vol,lip_violation,ASA_P,Natural,ChemicalName
"InChI=1S/C8H20NO6P/c1-9(2,3)4-5-14-16(12,13)15-7-8(11)6-10/h8,10-11H,4-7H2,1-3H3/p+1",SUHOQUVVVLNYQR-UHFFFAOYSA-O,P(OCC(O)CO)(OCC[N+](C)(C)C)(O)=O,C10H11N3O3S,258.23099,-2.5590,8,194.75,0,222.89479,0,"2-[2,3-dihydroxypropoxy(hydroxy)phosphoryl]oxyethyl-trimethyl-ammonium"
"InChI=1S/C5H11NO2/c1-2-3-4(6)5(7)8/h4H,2-3,6H2,1H3,(H,7,8)",SNDPXSYFESPGGJ-UHFFFAOYSA-N,OC(=O)C(N)CCC,C10H12O3,117.14799,-2.0017,3,106.38,0,140.41623,1,2-aminopentanoic acid
"InChI=1S/C5H9NO3/c7-3-1-4(5(8)9)6-2-3/h3-4,6-7H,1-2H2,(H,8,9)",PMMYEEVYMWASQN-UHFFFAOYSA-N,OC1CC(NC1)C(O)=O,C12H7Cl3O2,131.131,-0.9580,1,103.38,0,163.64827,1,4-hydroxypyrrolidine-2-carboxylic acid
"InChI=1S/C15H26N4O8/c1-7(16)12(21)19-10(15(26)27)5-6-11(20)18-9(14(24)25)4-2-3-8(17)13(22)23/h7-10H,2-6,16-17H2,1H3,(H,18,20)(H,19,21)(H,22,23)(H,24,25)(H,26,27)",FMNCPUGORYYCEM-UHFFFAOYSA-N,OC(=O)C(NC(=O)CCC(NC(=O)C(N)C)C(O)=O)CCCC(N)C(O)=O,C13H10N2O3S,390.39301,-4.4907,15,317.00,2,398.07034,0,2-amino-6-[[4-(2-aminopropanoylamino)-4-carboxy-butanoyl]amino]heptanedioic acid
"InChI=1S/C5H12O5/c6-1-3(8)5(10)4(9)2-7/h3-10H,1-2H2",HEBKCHPVOIAQTA-UHFFFAOYSA-N,OC(C(O)CO)C(O)CO,C13H18O2,152.146,-2.8170,4,113.88,0,200.21539,1,"pentane-1,2,3,4,5-pentol"
"InChI=1S/C10H18N4O6/c11-5(8(17)18)2-1-3-13-10(12)14-6(9(19)20)4-7(15)16/h5-6H,1-4,11H2,(H,15,16)(H,17,18)(H,19,20)(H3,12,13,14)",KDZOASGQNOPSCU-UHFFFAOYSA-N,OC(=O)C(N\C(=N\CCCC(N)C(O)=O)\N)CC(O)=O,C13H9Cl3N2O,290.276,-4.0007,10,227.38,1,385.16891,0,2-[[(<I>E</I>)-<I>N</I>'-(4-amino-4-carboxy-butyl)carbamimidoyl]amino]butanedioic acid
"InChI=1S/C4H7NO3/c5-3(1-2-6)4(7)8/h2-3H,1,5H2,(H,7,8)",HOSWPDPVFBCLSY-UHFFFAOYSA-N,OC(=O)C(N)CC=O,C14H12O3,117.104,-3.5557,3,97.00,0,197.3558,1,2-amino-4-oxo-butanoic acid
"InChI=1S/C5H7N3O4/c6-3(5(10)11)2-12-4(9)1-8-7/h1,3H,2,6H2,(H-,9,10,11)",AGNGYMCLFWQVGX-UHFFFAOYSA-N,O(CC(N)C(O)=O)C([O-])=C[N+]#N,C15H12N2O,173.12799,-3.8767,5,139.50,0,232.75627,1,(<I>E</I>)-1-(2-amino-2-carboxy-ethoxy)-2-diazonio-ethenolate
"InChI=1S/C5H7N3O4/c6-3(5(10)11)2-12-4(9)1-8-7/h1,3H,2,6H2,(H-,9,10,11)/p+1",AGNGYMCLFWQVGX-UHFFFAOYSA-O,O(CC(N)C(O)=O)C(O)=C[N+]#N,C4H4KNO4S,174.136,-3.9977,5,139.50,0,242.78366,0,(<I>E</I>)-2-(2-amino-2-carboxy-ethoxy)-2-hydroxy-ethenediazonium
"InChI=1S/C4H8NO7P/c5-2(4(7)8)1-3(6)12-13(9,10)11/h2H,1,5H2,(H,7,8)(H2,9,10,11)",IXZNKTPIYKDIGG-UHFFFAOYSA-N,P(OC(=O)CC(N)C(O)=O)(O)(O)=O,C7H6O3,213.082,-5.0407,5,135.25,0,315.09503,1,2-amino-4-oxo-4-phosphonooxy-butanoic acid
"InChI=1S/C6H13N3O3/c7-4(5(10)11)2-1-3-9-6(8)12/h4H,1-3,7H2,(H,10,11)(H3,8,9,12)",RHGKLRLOHDJJDR-UHFFFAOYSA-N,OC(=O)C(N)CCCNC(=O)N,C7H8N4O2,175.188,-3.9737,6,144.38,1,273.91602,0,2-amino-5-ureido-pentanoic acid
"InChI=1S/C7H14N2O4S/c8-4(6(10)11)1-2-14-3-5(9)7(12)13/h4-5H,1-3,8-9H2,(H,10,11)(H,12,13)",ILRYLPWNYFXEMH-UHFFFAOYSA-N,S(CC(N)C(O)=O)CCC(N)C(O)=O,C8H10N4O2,222.265,-3.6927,7,170.38,1,324.91699,1,2-amino-4-(2-amino-2-carboxy-ethyl)sulfanyl-butanoic acid
"InChI=1S/C6H6O6/c7-1-2(8)5-3(9)4(10)6(11)12-5/h2,5,7-8H,1H2",SBJKKFFYIZUCET-UHFFFAOYSA-N,O1C(C(O)CO)C(=O)C(=O)C1=O,C8H14ClN5,174.108,-2.3290,2,130.63,0,246.14825,1,"5-(1,2-dihydroxyethyl)tetrahydrofuran-2,3,4-trione"
"InChI=1S/C9H11NO4/c10-6(9(13)14)3-5-1-2-7(11)8(12)4-5/h1-2,4,6,11-12H,3,10H2,(H,13,14)",WTDRDQBEARUVNC-UHFFFAOYSA-N,Oc1cc(ccc1O)CC(N)C(O)=O,C8H8O3,197.19,-2.1037,3,165.25,0,226.85674,0,"2-amino-3-(3,4-dihydroxyphenyl)propanoic acid"
"InChI=1S/C9H7NO4/c11-7-2-4-1-6(9(13)14)10-5(4)3-8(7)12/h1,3,6,10H,2H2,(H,13,14)",CKZOQLKEDKSKJR-UHFFFAOYSA-N,O=C1CC2=CC(NC2=CC1=O)C(O)=O,C8H9NO2,193.15799,-0.6580,1,160.75,0,229.67847,1,"5,6-dioxo-2,4-dihydro-1<I>H</I>-indole-2-carboxylic acid"
"InChI=1S/C9H13NO3/c1-10-5-9(13)6-2-3-7(11)8(12)4-6/h2-4,9-13H,5H2,1H3",UCTWMZQNUQWSLP-UHFFFAOYSA-N,Oc1cc(ccc1O)C(O)CNC,C9H10O3,183.207,0.5330,3,163.13,0,178.86697,0,"4-[1-hydroxy-2-(methylamino)ethyl]benzene-1,2-diol"
"InChI=1S/C5H9NO5/c6-2(4(8)9)1-3(7)5(10)11/h2-3,7H,1,6H2,(H,8,9)(H,10,11)",HBDWQSHEVMSFGY-UHFFFAOYSA-N,OC(CC(N)C(O)=O)C(O)=O,C9H8O2,163.129,-4.0247,4,122.00,0,273.45258,1,2-amino-4-hydroxy-pentanedioic acid
"InChI=1S/C6H12O5/c1-2-3(7)4(8)5(9)6(10)11-2/h2-10H,1H3",SHZGCJCMOBCMKK-UHFFFAOYSA-N,O1C(C)C(O)C(O)C(O)C1O,C10H11ClO3,164.157,-1.8970,0,125.13,0,153.87939,1,"6-methyltetrahydropyran-2,3,4,5-tetrol"
"InChI=1S/C6H12O5/c1-3(8)5(10)6(11)4(9)2-7/h3,5-8,10-11H,2H2,1H3",QZNPNKJXABGCRC-UHFFFAOYSA-N,OC(C(O)C(=O)CO)C(O)C,C10H11N3O3S,164.157,-2.2270,4,129.38,0,180.20039,0,"1,3,4,5-tetrahydroxyhexan-2-one"
"InChI=1S/C8H14N2O5S/c9-4(7(12)13)1-2-6(11)10-5(3-16)8(14)15/h4-5,16H,1-3,9H2,(H,10,11)(H,12,13)(H,14,15)",RITKHVBHSGLULN-UHFFFAOYSA-N,SCC(NC(=O)CCC(N)C(O)=O)C(O)=O,C10H12O3,250.27499,-3.6647,8,193.38,0,334.79861,1,2-amino-5-[(1-carboxy-2-sulfanyl-ethyl)amino]-5-oxo-pentanoic acid
"InChI=1S/C5H10NO7P/c6-3(5(8)9)1-2-4(7)13-14(10,11)12/h3H,1-2,6H2,(H,8,9)(H2,10,11,12)",PJRXVIJAERNUIP-UHFFFAOYSA-N,P(OC(=O)CCC(N)C(O)=O)(O)(O)=O,C12H7Cl3O2,227.10899,-4.5987,6,152.25,0,306.65109,0,2-amino-5-oxo-5-phosphonooxy-pentanoic acid
"InChI=1S/C5H9NO3/c6-4(5(8)9)2-1-3-7/h3-4H,1-2,6H2,(H,8,9)",KABXUUFDPUOJMW-UHFFFAOYSA-N,OC(=O)C(N)CCC=O,C13H10N2O3S,131.131,-3.1137,4,111.50,0,180.64336,1,2-amino-5-oxo-pentanoic acid
"InChI=1S/C6H12N3O4P/c7-5(3-13-14(10,11)12)1-6-2-8-4-9-6/h2,4-5H,1,3,7H2,(H,8,9)(H2,10,11,12)",CWNDERHTHMWBSI-UHFFFAOYSA-N,P(OCC(N)Cc1[nH]cnc1)(O)(O)=O,C13H18O2,221.153,-2.6790,5,163.88,0,222.39478,1,[2-amino-3-(1<I>H</I>-imidazol-5-yl)propyl] dihydrogen phosphate
"InChI=1S/C10H12N2O3/c11-7-4-2-1-3-6(7)9(13)5-8(12)10(14)15/h1-4,8H,5,11-12H2,(H,14,15)",YGPSJZOEDVAXAB-UHFFFAOYSA-N,OC(=O)C(N)CC(=O)c1ccccc1N,C13H9Cl3N2O,208.217,-2.6417,4,183.50,0,213.61014,0,2-amino-4-(2-aminophenyl)-4-oxo-butanoic acid
"InChI=1S/C5H11NO3S/c1-10(9)3-2-4(6)5(7)8/h4H,2-3,6H2,1H3,(H,7,8)",QEFRNWWLZKMPFJ-UHFFFAOYSA-N,S(=O)(CCC(N)C(O)=O)C,C14H12O3,165.213,-4.3897,4,125.75,0,170.95651,1,2-amino-4-methylsulfinyl-butanoic acid
"InChI=1S/C6H12O4/c1-6(2,3-7)4(8)5(9)10/h4,7-8H,3H2,1-2H3,(H,9,10)",OTOIIPJYVQJATP-UHFFFAOYSA-N,OC(C(CO)(C)C)C(O)=O,C15H12N2O,148.15799,-0.2730,3,115.38,0,156.95232,0,"2,4-dihydroxy-3,3-dimethyl-butanoic acid"
"InChI=1S/C6H11NO2/c8-6(9)5-3-1-2-4-7-5/h5,7H,1-4H2,(H,8,9)",HXEACLLIILLPRG-UHFFFAOYSA-N,OC(=O)C1NCCCC1,C4H4KNO4S,129.159,0.4990,1,115.38,0,126.23505,1,piperidine-2-carboxylic acid
"InChI=1S/C5H11O8P/c6-1-3(7)5(9)4(8)2-13-14(10,11)12/h4-6,8-9H,1-2H2,(H2,10,11,12)",FNZLKVNUWIIPSJ-UHFFFAOYSA-N,P(OCC(O)C(O)C(=O)CO)(O)(O)=O,C7H6O3,230.10899,-3.5760,6,149.25,0,283.5788,1,"(2,3,5-trihydroxy-4-oxo-pentyl) dihydrogen phosphate"
"InChI=1S/C3H7NO2Se/c4-2(1-7)3(5)6/h2,7H,1,4H2,(H,5,6)",ZKZBPNGNEQAJSX-UHFFFAOYSA-N,[SeH]CC(N)C(O)=O,C7H8N4O2,168.05699,-3.6087,2,95.38,0,136.1057,0,2-amino-3-selanyl-propanoic acid
"InChI=1S/C5H9NO4/c1-2(4(7)8)3(6)5(9)10/h2-3H,6H2,1H3,(H,7,8)(H,9,10)",LXRUAYBIUSUULX-UHFFFAOYSA-N,OC(=O)C(C(N)C(O)=O)C,C8H10N4O2,147.12999,-3.4357,3,116.88,0,215.30881,1,2-amino-3-methyl-butanedioic acid
"InChI=1S/C15H11I4NO4/c16-8-4-7(5-9(17)13(8)21)24-14-10(18)1-6(2-11(14)19)3-12(20)15(22)23/h1-2,4-5,12,21H,3,20H2,(H,22,23)",XUIIKFGFIJCVMT-UHFFFAOYSA-N,Ic1cc(cc(I)c1Oc1cc(I)c(O)c(I)c1)CC(N)C(O)=O,C8H14ClN5,776.87201,4.6793,5,339.50,1,167.50995,0,"2-amino-3-[4-(4-hydroxy-3,5-diiodo-phenoxy)-3,5-diiodo-phenyl]propanoic acid"
"InChI=1S/C5H10O5/c6-1-3(8)5(10)4(9)2-7/h1,3-5,7-10H,2H2",PYMYPHUHKUWMLA-UHFFFAOYSA-N,OC(C(O)CO)C(O)C=O,C8H8O3,150.12999,-2.3680,4,113.88,0,201.99596,1,"2,3,4,5-tetrahydroxypentanal"
"InChI=1S/C3H6O2/c1-3(5)2-4/h2-3,5H,1H3",BSABBBMNWQWLLU-UHFFFAOYSA-N,OC(C=O)C,C8H9NO2,74.078995,-0.1870,1,67.13,0,113.56801,1,2-hydroxypropanal
"InChI=1S/C30H50O/c1-20(2)10-9-11-21(3)22-14-18-30(8)24-12-13-25-27(4,5)26(31)16-17-28(25,6)23(24)15-19-29(22,30)7/h10,21-22,25-26,31H,9,11-19H2,1-8H3",CAHGCLMLTWQZNJ-UHFFFAOYSA-N,OC1CCC2(C(CCC3=C2CCC2(C)C3(CCC2C(CCC=C(C)C)C)C)C1(C)C)C,C9H10O3,426.729,6.9520,4,383.38,1,39.698811,0,"17-(1,5-dimethylhex-4-enyl)-4,4,10,13,14-pentamethyl-2,3,5,6,7,11,12,15,16,17-decahydro-1<I>H</I>-cyclopenta[a]phenanthren-3-ol"
"InChI=1S/C6H13NO2/c1-4(2)3-5(7)6(8)9/h4-5H,3,7H2,1-2H3,(H,8,9)",ROHFNLRQFUQHCH-UHFFFAOYSA-N,OC(=O)C(N)CC(C)C,C9H8O2,131.175,-1.6437,3,120.88,0,141.7534,1,2-amino-4-methyl-pentanoic acid
"InChI=1S/C16H20O2/c17-13-6-5-11-15-16(18-15)12-7-10-14-8-3-1-2-4-9-14/h1,3-4,7,9-10,12-13,15-16H,2,5-6,8,11H2",HWUPLFSLSVKTJN-UHFFFAOYSA-N,O1C(CCCC=O)C1C=CC=C1CC=CCC=C1,C10H11ClO3,244.334,3.1430,6,252.75,0,133.54204,0,"4-[3-[(<I>E</I>,3<I>E</I>)-3-cyclohepta-2,5-dien-1-ylideneprop-1-enyl]oxiran-2-yl]butanal"
"InChI=1S/C31H49N3O8S/c1-3-4-5-6-7-8-9-10-11-12-13-14-17-27(26(36)16-15-18-29(38)39)43-22-25(30(40)33-21-23(2)35)34-28(37)20-19-24(32)31(41)42/h7-8,10-14,17,24-27,36H,3-6,9,15-16,18-22,32H2,1-2H3,(H,33 ,40)(H,34,37)(H,38,39)(H,41,42)",VGQBZHKBIHXHBO-UHFFFAOYSA-N,S(C(C(O)CCCC(O)=O)C=CC=CC=CCC=CCCCCC)CC(NC(=O)CCC(N)C(O)=O)C(=O)NCC(=O)C,C10H11N3O3S,623.81201,0.3573,27,568.38,3,386.9823,1,"(7<I>E</I>,9<I>E</I>,11<I>E</I>,14<I>E</I>)-6-[3-(acetonylamino)-2-[(4-amino-4-carboxy-butanoyl)amino]-3-oxo-propyl]sulfanyl-5-hydroxy-icosa-7,9,11,14-tetraenoic acid"
"InChI=1S/C18H30O2/c1-2-3-4-5-6-7-8-9-10-11-12-13-14-15-16-17-18(19)20/h3-4,6-7,9-10H,2,5,8,11-17H2,1H3,(H,19,20)",DTOSIQBPPRVQHS-UHFFFAOYSA-N,OC(=O)CCCCCCCC=CCC=CCC=CCC,C10H12O3,278.436,4.8900,13,297.75,1,174.34416,1,"(9<I>E</I>,12<I>E</I>,15<I>E</I>)-octadeca-9,12,15-trienoic acid"
"InChI=1S/C15H12I3NO4/c16-9-6-8(1-2-13(9)20)23-14-10(17)3-7(4-11(14)18)5-12(19)15(21)22/h1-4,6,12,20H,5,19H2,(H,21,22)",AUYYCJSJGJYCDS-UHFFFAOYSA-N,Ic1cc(cc(I)c1Oc1cc(I)c(O)cc1)CC(N)C(O)=O,C12H7Cl3O2,650.97601,3.4543,5,313.63,1,162.37869,0,"2-amino-3-[4-(4-hydroxy-3-iodo-phenoxy)-3,5-diiodo-phenyl]propanoic acid"
"InChI=1S/C68H130N2O23P2/c1-5-9-13-17-21-25-29-33-37-41-51(72)45-57(76)69-61-65(90-59(78)47-53(74)43-39-35-31-27-23-19-15-11-7-3)63(80)56(89-68(61)93-95(84,85)86)50-87-67-62(70-58(77)46-52(73)42-38-34- 30-26-22-18-14-10-6-2)66(64(55(49-71)88-67)92-94(81,82)",KVJWZTLXIROHIL-UHFFFAOYSA-N,P(OC1C(OC(=O)CC(O)CCCCCCCCCCC)C(NC(=O)CC(O)CCCCCCCCCCC)C(OC1CO)OCC1OC(OP(O)(O)=O)C(NC(=O)CC(O)CCCCCCCCCCC)C(OC(=O)CC(O)CCCCCCCCCCC)C1O)(O)(O)=O,C13H10N2O3S,1405.7269,11.4897,64,1204.25,4,366.7952,1,[3-hydroxy-2-[[6-(hydroxymethyl)-3-(3-hydroxytetradecanoylamino)-4-(3-hydroxytetradecanoyloxy)-5-phosphonooxy-tetrahydropyran-2-yl]oxymethyl]-5-(3-hydroxytetradecanoylamino)-6-phosphonooxy-tetrahydrop yran-4-yl] 3-hydroxytetradecanoate
"InChI=1S/C8H15NOS2/c9-8(10)4-2-1-3-7-5-6-11-12-7/h7H,1-6H2,(H2,9,10)",FCCDDURTIIUXBY-UHFFFAOYSA-N,S1SCCC1CCCCC(=O)N,C13H18O2,205.34601,2.1920,5,167.13,0,214.34087,0,5-(dithiolan-3-yl)pentanamide
"InChI=1S/C8H14O2S2/c9-8(10)4-2-1-3-7-5-6-11-12-7/h7H,1-6H2,(H,9,10)",AGBQKNBQESQNJD-UHFFFAOYSA-N,S1SCCC1CCCCC(O)=O,C13H9Cl3N2O,206.33,2.9260,5,164.75,0,173.07394,1,5-(dithiolan-3-yl)pentanoic acid
"InChI=1S/C7H14N2O4/c8-4(6(10)11)2-1-3-5(9)7(12)13/h4-5H,1-3,8-9H2,(H,10,11)(H,12,13)",GMKMEZVLHJARHF-UHFFFAOYSA-N,OC(=O)C(N)CCCC(N)C(O)=O,C14H12O3,190.19899,-3.3627,6,153.75,1,267.93451,1,"2,6-diaminoheptanedioic acid"
"InChI=1S/C6H14N2O2/c7-4-2-1-3-5(8)6(9)10/h5H,1-4,7-8H2,(H,9,10)",KDXKERNSBIXSRK-UHFFFAOYSA-N,OC(=O)C(N)CCCCN,C15H12N2O,146.19,-2.9887,5,127.50,0,207.37958,0,"2,6-diaminohexanoic acid"
"InChI=1S/C3H4O4/c4-2(5)1-3(6)7/h1H2,(H,4,5)(H,6,7)",OFOBLEOULBTSOW-UHFFFAOYSA-N,OC(=O)CC(O)=O,C4H4KNO4S,104.061,-0.6120,2,78.38,0,196.78165,1,malonic acid
"InChI=1S/C3H4O3/c4-2-1-3(5)6/h2H,1H2,(H,5,6)",OAKURXIZZOAYBC-UHFFFAOYSA-N,OC(=O)CC=O,C7H6O3,88.061996,-0.3620,2,72.50,0,165.01537,0,3-oxopropanoic acid
"InChI=1S/C24H38N7O19P3S/c1-24(2,19(37)22(38)27-4-3-13(32)26-5-6-54-15(35)7-14(33)34)9-47-53(44,45)50-52(42,43)46-8-12-18(49-51(39,40)41)17(36)23(48-12)31-11-30-16-20(25)28-10-29-21(16)31/h10-12,17-19, 23,36-37H,3-9H2,1-2H3,(H,26,32)(H,27,38)(H,33,34)(H,42,",LTYOQGRJFJAKNA-UHFFFAOYSA-N,S(C(=O)CC(O)=O)CCNC(=O)CCNC(=O)C(O)C(COP(OP(OCC1OC(n2c3ncnc(N)c3nc2)C(O)C1OP(O)(O)=O)(O)=O)(O)=O)(C)C,C7H8N4O2,853.586,-5.5659,24,592.88,3,743.85834,1,"3-[2-[3-[[4-[[[5-(6-aminopurin-9-yl)-4-hydroxy-3-phosphonooxy-tetrahydrofuran-2-yl]methoxy-hydroxy-phosphoryl]oxy-hydroxy-phosphoryl]oxy-2-hydroxy-3,3-dimethyl-butanoyl]amino]propanoylamino]ethylsulfa nyl]-3-oxo-propanoic acid"
"InChI=1S/C24H42O21/c25-1-5-9(29)10(30)15(35)22(40-5)44-19-7(3-27)42-24(17(37)12(19)32)45-20-8(4-28)41-23(16(36)13(20)33)43-18-6(2-26)39-21(38)14(34)11(18)31/h5-38H,1-4H2",LUEWUZLMQUOBSB-UHFFFAOYSA-N,O1C(CO)C(OC2OC(CO)C(O)C(O)C2O)C(O)C(O)C1OC1C(O)C(O)C(OC1CO)OC1C(O)C(O)C(OC1CO)O,C8H10N4O2,666.57898,-8.6800,10,470.50,3,481.97513,1,"2-[6-[4,5-dihydroxy-2-(hydroxymethyl)-6-[4,5,6-trihydroxy-2-(hydroxymethyl)tetrahydropyran-3-yl]oxy-tetrahydropyran-3-yl]oxy-4,5-dihydroxy-2-(hydroxymethyl)tetrahydropyran-3-yl]oxy-6-(hydroxymethyl)te trahydropyran-3,4,5-triol"
"InChI=1S/C18H32O16/c19-1-4-7(22)8(23)12(27)17(31-4)34-15-6(3-21)32-18(13(28)10(15)25)33-14-5(2-20)30-16(29)11(26)9(14)24/h4-29H,1-3H2",FYGDTMLNYKFZSV-UHFFFAOYSA-N,O1C(CO)C(OC2OC(CO)C(O)C(O)C2O)C(O)C(O)C1OC1C(O)C(O)C(OC1CO)O,C8H14ClN5,504.43799,-6.7640,7,356.13,3,436.40204,0,"2-[4,5-dihydroxy-2-(hydroxymethyl)-6-[4,5,6-trihydroxy-2-(hydroxymethyl)tetrahydropyran-3-yl]oxy-tetrahydropyran-3-yl]oxy-6-(hydroxymethyl)tetrahydropyran-3,4,5-triol"
"InChI=1S/C12H22O11/c13-1-3-5(14)8(17)10(19)12(23-3)21-2-4-6(15)7(16)9(18)11(20)22-4/h3-20H,1-2H2",DLRVVLDZNNYCBX-UHFFFAOYSA-N,O1C(CO)C(O)C(O)C(O)C1OCC1OC(O)C(O)C(O)C1O,C8H8O3,342.297,-4.8480,4,246.75,2,329.09869,1,"6-[[3,4,5-trihydroxy-6-(hydroxymethyl)tetrahydropyran-2-yl]oxymethyl]tetrahydropyran-2,3,4,5-tetrol"
"InChI=1S/C9H10O3/c10-8-4-2-1-3-7(8)5-6-9(11)12/h1-4,10H,5-6H2,(H,11,12)",CJBDUOMQLFKVQC-UHFFFAOYSA-N,Oc1ccccc1CCC(O)=O,C8H9NO2,166.17599,1.4490,3,153.38,0,128.66754,0,3-(2-hydroxyphenyl)propanoic acid
"InChI=1S/C5H6O4/c1-3(5(8)9)2-4(6)7/h2H,1H3,(H,6,7)(H,8,9)",HNEGQIOMVPPMNR-UHFFFAOYSA-N,OC(=O)C(=CC(O)=O)C,C9H10O3,130.099,-0.0120,2,108.88,0,178.32172,1,(<I>E</I>)-2-methylbut-2-enedioic acid
"InChI=1S/C4H6O6/c5-1(3(7)8)2(6)4(9)10/h1-2,5-6H,(H,7,8)(H,9,10)",FEWJPZIEWOKRBE-UHFFFAOYSA-N,OC(C(O)C(O)=O)C(O)=O,C9H8O2,150.086,-1.8460,3,105.63,0,251.26413,1,"2,3-dihydroxybutanedioic acid"
"InChI=1S/C5H11NO2S/c1-9-3-2-4(6)5(7)8/h4H,2-3,6H2,1H3,(H,7,8)",FFEARJCKVFRZRR-UHFFFAOYSA-N,S(CCC(N)C(O)=O)C,C10H11ClO3,149.214,-2.4027,4,121.13,0,209.17998,0,2-amino-4-methylsulfanyl-butanoic acid
"InChI=1S/C25H40N7O17P3S/c1-13(2)24(37)53-8-7-27-15(33)5-6-28-22(36)19(35)25(3,4)10-46-52(43,44)49-51(41,42)45-9-14-18(48-50(38,39)40)17(34)23(47-14)32-12-31-16-20(26)29-11-30-21(16)32/h11-12,14,17-19, 23,34-35H,1,5-10H2,2-4H3,(H,27,33)(H,28,36)(H,41,42)(H,",NPALUEYCDZWBOV-UHFFFAOYSA-N,S(C(=O)C(C)=C)CCNC(=O)CCNC(=O)C(O)C(COP(OP(OCC1OC(n2c3ncnc(N)c3nc2)C(O)C1OP(O)(O)=O)(O)=O)(O)=O)(C)C,C10H11N3O3S,835.61499,-4.4529,23,598.50,3,646.83167,1,"<I>S</I>-[2-[3-[[4-[[[5-(6-aminopurin-9-yl)-4-hydroxy-3-phosphonooxy-tetrahydrofuran-2-yl]methoxy-hydroxy-phosphoryl]oxy-hydroxy-phosphoryl]oxy-2-hydroxy-3,3-dimethyl-butanoyl]amino]propanoylamino]eth yl] 2-methylprop-2-enethioate"
"InChI=1S/CH4S/c1-2/h2H,1H3",LSDPWZHWYPCBBB-UHFFFAOYSA-N,SC,C10H12O3,48.109001,0.7410,0,42.88,0,91.726212,0,methanethiol
"InChI=1S/C34H44N4O15/c35-16-22-15-20(18-53-22)17-52-21-3-1-19(2-4-21)13-14-36-27(39)10-7-25(33(48)49)38-29(41)11-8-26(34(50)51)37-28(40)9-5-23(31(44)45)24(32(46)47)6-12-30(42)43/h1-4,15,18,23-26H,5-14 ,16-17,35H2,(H,36,39)(H,37,40)(H,38,41)(H,42,43)(H,44,4",CKRUWFDORAQSRC-UHFFFAOYSA-N,o1cc(cc1CN)COc1ccc(cc1)CCNC(=O)CCC(NC(=O)CCC(NC(=O)CCC(C(CCC(O)=O)C(O)=O)C(O)=O)C(O)=O)C(O)=O,C12H7Cl3O2,748.73895,-0.9250,29,626.25,3,533.12701,1,"7-[[4-[[4-[2-[4-[[5-(aminomethyl)-3-furyl]methoxy]phenyl]ethylamino]-1-carboxy-4-oxo-butyl]amino]-1-carboxy-4-oxo-butyl]amino]-7-oxo-heptane-1,3,4-tricarboxylic acid"
"InChI=1S/C3H4O2/c1-3(5)2-4/h2H,1H3",AIJULSRZWUXGPQ-UHFFFAOYSA-N,O=C(C=O)C,C13H10N2O3S,72.062996,-0.2740,1,67.13,0,114.42494,1,2-oxopropanal
InChI=1S/CH3/h1H3/q-1,LGRLWUINFJPLSH-UHFFFAOYSA-N,[CH3-],C13H18O2,15.035,0.1089,0,25.38,0,73.678894,0,carbanide
"InChI=1S/C31H47N6O16P/c1-13(22-14(2)34-27-23(37(22)3)28(45)36-31(32)35-27)33-16-6-4-15(5-7-16)10-17(38)24(42)18(39)11-50-30-26(44)25(43)20(52-30)12-51-54(48,49)53-19(29(46)47)8-9-21(40)41/h4-7,13-14,1 7-20,22,24-26,30,33,38-39,42-44H,8-12H2,1-3H3,(H,40,41)",SWBKYDXMQNCIAW-UHFFFAOYSA-M,P(OCC1OC(OCC(O)C(O)C(O)Cc2ccc(NC(C)C3N(C4=C(NC3C)NC(=NC4=O)N)C)cc2)C(O)C1O)(OC(CCC(O)=O)C(O)=O)(=O)[O-],C13H9Cl3N2O,789.70898,-2.3910,19,617.25,3,532.40375,1,"[5-[5-[4-[1-(2-amino-5,7-dimethyl-4-oxo-1,6,7,8-tetrahydropteridin-6-yl)ethylamino]phenyl]-2,3,4-trihydroxy-pentoxy]-3,4-dihydroxy-tetrahydrofuran-2-yl]methyl 1,3-dicarboxypropyl phosphate"
"InChI=1S/C31H47N6O16P/c1-13(22-14(2)34-27-23(37(22)3)28(45)36-31(32)35-27)33-16-6-4-15(5-7-16)10-17(38)24(42)18(39)11-50-30-26(44)25(43)20(52-30)12-51-54(48,49)53-19(29(46)47)8-9-21(40)41/h4-7,13-14,1 7-20,22,24-26,30,33,38-39,42-44H,8-12H2,1-3H3,(H,40,41)",SWBKYDXMQNCIAW-UHFFFAOYSA-N,P(OCC1OC(OCC(O)C(O)C(O)Cc2ccc(NC(C)C3N(C4=C(NC3C)NC(=NC4=O)N)C)cc2)C(O)C1O)(OC(CCC(O)=O)C(O)=O)(O)=O,C14H12O3,790.71698,-2.3410,19,617.25,3,613.00165,0,"2-[[5-[5-[4-[1-(2-amino-5,7-dimethyl-4-oxo-1,6,7,8-tetrahydropteridin-6-yl)ethylamino]phenyl]-2,3,4-trihydroxy-pentoxy]-3,4-dihydroxy-tetrahydrofuran-2-yl]methoxy-hydroxy-phosphoryl]oxypentanedioic ac id"
"InChI=1S/C20H23N7O6/c21-20-24-16-15(18(31)25-20)27-9-26(8-12(27)7-22-16)11-3-1-10(2-4-11)17(30)23-13(19(32)33)5-6-14(28)29/h1-4,12-13H,5-9H2,(H,23,30)(H,28,29)(H,32,33)(H4,21,22,24,25,31)",QYNUQALWYRSVHF-UHFFFAOYSA-N,O=C1N=C(NC=2NCC3N(C1=2)CN(C3)c1ccc(cc1)C(=O)NC(CCC(O)=O)C(O)=O)N,C15H12N2O,457.44699,0.0000,8,383.38,2,424.00296,1,"2-[[4-(3-amino-1-oxo-4,5,6,6<I>a</I>,7,9-hexahydroimidazo[1,5-f]pteridin-8-yl)benzoyl]amino]pentanedioic acid"
"InChI=1S/C31H45N6O16P/c1-13-22-14(2)36(12-37(22)23-27(33-13)34-31(32)35-28(23)45)16-5-3-15(4-6-16)9-17(38)24(42)18(39)10-50-30-26(44)25(43)20(52-30)11-51-54(48,49)53-19(29(46)47)7-8-21(40)41/h3-6,13-1 4,17-20,22,24-26,30,38-39,42-44H,7-12H2,1-2H3,(H,40,41)",GBMIGEWJAPFSQI-UHFFFAOYSA-M,P(OCC1OC(OCC(O)C(O)C(O)Cc2ccc(N3CN4C(C3C)C(NC=3NC(=NC(=O)C=34)N)C)cc2)C(O)C1O)(OC(CCC(O)=O)C(O)=O)(=O)[O-],C4H4KNO4S,787.69299,-2.3650,17,616.63,3,622.45886,1,"[5-[5-[4-(3-amino-6,7-dimethyl-1-oxo-4,5,6,6<I>a</I>,7,9-hexahydroimidazo[1,5-f]pteridin-8-yl)phenyl]-2,3,4-trihydroxy-pentoxy]-3,4-dihydroxy-tetrahydrofuran-2-yl]methyl 1,3-dicarboxypropyl phosphate"
"InChI=1S/C31H45N6O16P/c1-13-22-14(2)36(12-37(22)23-27(33-13)34-31(32)35-28(23)45)16-5-3-15(4-6-16)9-17(38)24(42)18(39)10-50-30-26(44)25(43)20(52-30)11-51-54(48,49)53-19(29(46)47)7-8-21(40)41/h3-6,13-1 4,17-20,22,24-26,30,38-39,42-44H,7-12H2,1-2H3,(H,40,41)",GBMIGEWJAPFSQI-UHFFFAOYSA-N,P(OCC1OC(OCC(O)C(O)C(O)Cc2ccc(N3CN4C(C3C)C(NC=3NC(=NC(=O)C=34)N)C)cc2)C(O)C1O)(OC(CCC(O)=O)C(O)=O)(O)=O,C7H6O3,788.70099,-2.3150,17,616.63,3,599.0481,0,"2-[[5-[5-[4-(3-amino-6,7-dimethyl-1-oxo-4,5,6,6<I>a</I>,7,9-hexahydroimidazo[1,5-f]pteridin-8-yl)phenyl]-2,3,4-trihydroxy-pentoxy]-3,4-dihydroxy-tetrahydrofuran-2-yl]methoxy-hydroxy-phosphoryl]oxypent anedioic acid"
"InChI=1S/CH4O/c1-2/h2H,1H3",OKKJLVBELUTLKV-UHFFFAOYSA-N,OC,C7H8N4O2,32.042,-0.4040,0,32.25,0,95.478882,1,methanol
InChI=1S/Mg/q+2,JLVVSXFLKOJNIY-UHFFFAOYSA-N,[Mg+2],C8H10N4O2,24.305,-0.0620,0,21.38,0,123.11148,0,magnesium(2+)
"InChI=1S/C6H18O24P6/c7-31(8,9)25-1-2(26-32(10,11)12)4(28-34(16,17)18)6(30-36(22,23)24)5(29-35(19,20)21)3(1)27-33(13,14)15/h1-6H,(H2,7,8,9)(H2,10,11,12)(H2,13,14,15)(H2,16,17,18)(H2,19,20,21)(H2,22,23, 24)",IMQLKJBTEOYOSI-UHFFFAOYSA-N,P(OC1C(OP(O)(O)=O)C(OP(O)(O)=O)C(OP(O)(O)=O)C(OP(O)(O)=O)C1OP(O)(O)=O)(O)(O)=O,C8H14ClN5,660.02997,-10.3116,12,309.38,3,620.65826,1,"(2,3,4,5,6-pentaphosphonooxycyclohexyl) dihydrogen phosphate"
"InChI=1S/C7H8O6/c1-13-7(12)4(2-5(8)9)3-6(10)11/h2H,3H2,1H3,(H,8,9)(H,10,11)",BRYKYSQCLNCYQW-UHFFFAOYSA-N,O(C(=O)C(CC(O)=O)=CC(O)=O)C,C8H8O3,188.13499,-0.2810,5,151.50,0,254.81282,1,(<I>E</I>)-3-methoxycarbonylpent-2-enedioic acid